s02-g01/s02-g01_q-01_m01_k00_force_uwb97xd_def2svpd stable-force        
Force     UwB97XD                                                     Gen                 
Number of atoms                            I               11
Info1-9                                    I   N=           9
          13           9           0           0           0         100
           5          18       -5802
Full Title                                 C   N=           6
s02-g01/s02-g01_q-01_m01_k00_force_uwb97xd_def2svpd stable-f
orce        
Route                                      C   N=          15
#p uwb97xd/chkbasis force guess=read geom=check scf=(maxcycl
e=900,verytightlineq,xqc) integral=grid=ultrafine symmetry=N
one density=current pop=(cm5,hlygat,mbs,npa) output=wfx     
Charge                                     I               -1
Multiplicity                               I                1
Number of electrons                        I               60
Number of alpha electrons                  I               30
Number of beta electrons                   I               30
Number of basis functions                  I              179
Number of independent functions            I              179
Number of point charges in /Mol/           I                0
Number of translation vectors              I                0
Atomic numbers                             I   N=          11
          14           8           8           8           8           1
           1           1           8           1           1
Nuclear charges                            R   N=          11
  1.40000000E+01  8.00000000E+00  8.00000000E+00  8.00000000E+00  8.00000000E+00
  1.00000000E+00  1.00000000E+00  1.00000000E+00  8.00000000E+00  1.00000000E+00
  1.00000000E+00
Current cartesian coordinates              R   N=          33
 -9.16301358E-01 -9.67402865E-02  9.09925825E-02 -2.63124964E+00 -2.32252768E+00
 -1.41981824E+00 -3.26305521E+00  1.72160723E+00  1.24564492E+00  4.15729789E-01
  1.80950202E+00 -2.09602895E+00  1.11488574E+00 -1.24960091E+00  1.94472302E+00
 -1.85353393E+00 -3.90257674E+00 -9.91841782E-01 -2.62823636E+00  3.40397288E+00
  1.46045861E+00  2.22256548E+00  1.65037764E+00 -1.89282164E+00  5.48266428E+00
  2.40728664E-01  2.25105032E-01  3.85916146E+00 -3.57298264E-01  1.05333356E+00
  6.07553210E+00 -1.27776336E+00 -5.62484226E-01
Number of symbols in /Mol/                 I                0
Int Atom Types                             I   N=          11
           0           0           0           0           0           0
           0           0           0           0           0
Force Field                                I                0
Atom Types                                 C   N=          11
                                                            
                                                            
            
MM charges                                 R   N=          11
  0.00000000E+00  0.00000000E+00  0.00000000E+00  0.00000000E+00  0.00000000E+00
  0.00000000E+00  0.00000000E+00  0.00000000E+00  0.00000000E+00  0.00000000E+00
  0.00000000E+00
Integer atomic weights                     I   N=          11
          28          16          16          16          16           1
           1           1          16           1           1
Real atomic weights                        R   N=          11
  2.79769284E+01  1.59949146E+01  1.59949146E+01  1.59949146E+01  1.59949146E+01
  1.00782504E+00  1.00782504E+00  1.00782504E+00  1.59949146E+01  1.00782504E+00
  1.00782504E+00
Atom fragment info                         I   N=          11
           0           0           0           0           0           0
           0           0           0           0           0
Atom residue num                           I   N=          11
           0           0           0           0           0           0
           0           0           0           0           0
Nuclear spins                              I   N=          11
           0           0           0           0           0           1
           1           1           0           1           1
Nuclear ZEff                               R   N=          11
 -1.22500000E+01 -5.60000000E+00 -5.60000000E+00 -5.60000000E+00 -5.60000000E+00
 -1.00000000E+00 -1.00000000E+00 -1.00000000E+00 -5.60000000E+00 -1.00000000E+00
 -1.00000000E+00
Nuclear ZNuc                               R   N=          11
  1.40000000E+01  8.00000000E+00  8.00000000E+00  8.00000000E+00  8.00000000E+00
  1.00000000E+00  1.00000000E+00  1.00000000E+00  8.00000000E+00  1.00000000E+00
  1.00000000E+00
Nuclear QMom                               R   N=          11
  0.00000000E+00  0.00000000E+00  0.00000000E+00  0.00000000E+00  0.00000000E+00
  0.00000000E+00  0.00000000E+00  0.00000000E+00  0.00000000E+00  0.00000000E+00
  0.00000000E+00
Nuclear GFac                               R   N=          11
  0.00000000E+00  0.00000000E+00  0.00000000E+00  0.00000000E+00  0.00000000E+00
  2.79284600E+00  2.79284600E+00  2.79284600E+00  0.00000000E+00  2.79284600E+00
  2.79284600E+00
MicOpt                                     I   N=          11
          -1          -1          -1          -1          -1          -1
          -1          -1          -1          -1          -1
Number of residues                         I                0
Number of secondary structures             I                0
Number of contracted shells                I               75
Number of primitive shells                 I              125
Pure/Cartesian d shells                    I                0
Pure/Cartesian f shells                    I                0
Highest angular momentum                   I                2
Largest degree of contraction              I                5
Shell types                                I   N=          75
           0           0           0           0           0           1
           1           1          -2          -2           0           0
           0           0           1           1           1          -2
          -2           0           0           0           0           1
           1           1          -2          -2           0           0
           0           0           1           1           1          -2
          -2           0           0           0           0           1
           1           1          -2          -2           0           0
           1           1           0           0           1           1
           0           0           1           1           0           0
           0           0           1           1           1          -2
          -2           0           0           1           1           0
           0           1           1
Number of primitives per shell             I   N=          75
           5           3           1           1           1           5
           1           1           1           1           5           1
           1           1           3           1           1           1
           1           5           1           1           1           3
           1           1           1           1           5           1
           1           1           3           1           1           1
           1           5           1           1           1           3
           1           1           1           1           3           1
           1           1           3           1           1           1
           3           1           1           1           5           1
           1           1           3           1           1           1
           1           3           1           1           1           3
           1           1           1
Shell to atom map                          I   N=          75
           1           1           1           1           1           1
           1           1           1           1           2           2
           2           2           2           2           2           2
           2           3           3           3           3           3
           3           3           3           3           4           4
           4           4           4           4           4           4
           4           5           5           5           5           5
           5           5           5           5           6           6
           6           6           7           7           7           7
           8           8           8           8           9           9
           9           9           9           9           9           9
           9          10          10          10          10          11
          11          11          11
Primitive exponents                        R   N=         125
  6.90371187E+03  1.03843464E+03  2.35875815E+02  6.60693852E+01  2.02479458E+01
  3.43534817E+01  3.63707882E+00  1.40020486E+00  2.04844148E-01  7.79940955E-02
  4.68347783E-02  1.79839074E+02  4.19072588E+01  1.29552944E+01  4.43832674E+00
  1.54622479E+00  3.56076123E-01  1.00085138E-01  3.50000000E-01  7.41177077E-02
  2.26617678E+03  3.40870102E+02  7.73631352E+01  2.14796449E+01  6.65894331E+00
  8.09759757E-01  2.55307722E-01  7.65724533E-02  1.77215043E+01  3.86355054E+00
  1.04809209E+00  2.76415444E-01  6.90022764E-02  1.20000000E+00  1.79920243E-01
  2.26617678E+03  3.40870102E+02  7.73631352E+01  2.14796449E+01  6.65894331E+00
  8.09759757E-01  2.55307722E-01  7.65724533E-02  1.77215043E+01  3.86355054E+00
  1.04809209E+00  2.76415444E-01  6.90022764E-02  1.20000000E+00  1.79920243E-01
  2.26617678E+03  3.40870102E+02  7.73631352E+01  2.14796449E+01  6.65894331E+00
  8.09759757E-01  2.55307722E-01  7.65724533E-02  1.77215043E+01  3.86355054E+00
  1.04809209E+00  2.76415444E-01  6.90022764E-02  1.20000000E+00  1.79920243E-01
  2.26617678E+03  3.40870102E+02  7.73631352E+01  2.14796449E+01  6.65894331E+00
  8.09759757E-01  2.55307722E-01  7.65724533E-02  1.77215043E+01  3.86355054E+00
  1.04809209E+00  2.76415444E-01  6.90022764E-02  1.20000000E+00  1.79920243E-01
  1.30107010E+01  1.96225720E+00  4.44537960E-01  1.21949620E-01  8.00000000E-01
  1.17040991E-01  1.30107010E+01  1.96225720E+00  4.44537960E-01  1.21949620E-01
  8.00000000E-01  1.17040991E-01  1.30107010E+01  1.96225720E+00  4.44537960E-01
  1.21949620E-01  8.00000000E-01  1.17040991E-01  2.26617678E+03  3.40870102E+02
  7.73631352E+01  2.14796449E+01  6.65894331E+00  8.09759757E-01  2.55307722E-01
  7.65724533E-02  1.77215043E+01  3.86355054E+00  1.04809209E+00  2.76415444E-01
  6.90022764E-02  1.20000000E+00  1.79920243E-01  1.30107010E+01  1.96225720E+00
  4.44537960E-01  1.21949620E-01  8.00000000E-01  1.17040991E-01  1.30107010E+01
  1.96225720E+00  4.44537960E-01  1.21949620E-01  8.00000000E-01  1.17040991E-01
Contraction coefficients                   R   N=         125
  5.58446589E-03  4.17422844E-02  1.87528024E-01  4.78678597E-01  4.29256952E-01
  8.98348995E-02 -5.45685959E-01 -5.24810829E-01  1.00000000E+00  1.00000000E+00
  1.00000000E+00  1.01334984E-02  7.10290411E-02  2.55839142E-01  4.81498047E-01
  3.85211960E-01  1.00000000E+00  1.00000000E+00  1.00000000E+00  1.00000000E+00
 -5.38935039E-03 -4.02347214E-02 -1.80081842E-01 -4.68288577E-01 -4.46926172E-01
  1.00000000E+00  1.00000000E+00  1.00000000E+00  6.26302488E-02  3.33311385E-01
  7.41486383E-01  1.00000000E+00  1.00000000E+00  1.00000000E+00  1.00000000E+00
 -5.38935039E-03 -4.02347214E-02 -1.80081842E-01 -4.68288577E-01 -4.46926172E-01
  1.00000000E+00  1.00000000E+00  1.00000000E+00  6.26302488E-02  3.33311385E-01
  7.41486383E-01  1.00000000E+00  1.00000000E+00  1.00000000E+00  1.00000000E+00
 -5.38935039E-03 -4.02347214E-02 -1.80081842E-01 -4.68288577E-01 -4.46926172E-01
  1.00000000E+00  1.00000000E+00  1.00000000E+00  6.26302488E-02  3.33311385E-01
  7.41486383E-01  1.00000000E+00  1.00000000E+00  1.00000000E+00  1.00000000E+00
 -5.38935039E-03 -4.02347214E-02 -1.80081842E-01 -4.68288577E-01 -4.46926172E-01
  1.00000000E+00  1.00000000E+00  1.00000000E+00  6.26302488E-02  3.33311385E-01
  7.41486383E-01  1.00000000E+00  1.00000000E+00  1.00000000E+00  1.00000000E+00
  3.34854848E-02  2.34721871E-01  8.13770285E-01  1.00000000E+00  1.00000000E+00
  1.00000000E+00  3.34854848E-02  2.34721871E-01  8.13770285E-01  1.00000000E+00
  1.00000000E+00  1.00000000E+00  3.34854848E-02  2.34721871E-01  8.13770285E-01
  1.00000000E+00  1.00000000E+00  1.00000000E+00 -5.38935039E-03 -4.02347214E-02
 -1.80081842E-01 -4.68288577E-01 -4.46926172E-01  1.00000000E+00  1.00000000E+00
  1.00000000E+00  6.26302488E-02  3.33311385E-01  7.41486383E-01  1.00000000E+00
  1.00000000E+00  1.00000000E+00  1.00000000E+00  3.34854848E-02  2.34721871E-01
  8.13770285E-01  1.00000000E+00  1.00000000E+00  1.00000000E+00  3.34854848E-02
  2.34721871E-01  8.13770285E-01  1.00000000E+00  1.00000000E+00  1.00000000E+00
Coordinates of each shell                  R   N=         225
 -9.16301358E-01 -9.67402865E-02  9.09925825E-02 -9.16301358E-01 -9.67402865E-02
  9.09925825E-02 -9.16301358E-01 -9.67402865E-02  9.09925825E-02 -9.16301358E-01
 -9.67402865E-02  9.09925825E-02 -9.16301358E-01 -9.67402865E-02  9.09925825E-02
 -9.16301358E-01 -9.67402865E-02  9.09925825E-02 -9.16301358E-01 -9.67402865E-02
  9.09925825E-02 -9.16301358E-01 -9.67402865E-02  9.09925825E-02 -9.16301358E-01
 -9.67402865E-02  9.09925825E-02 -9.16301358E-01 -9.67402865E-02  9.09925825E-02
 -2.63124964E+00 -2.32252768E+00 -1.41981824E+00 -2.63124964E+00 -2.32252768E+00
 -1.41981824E+00 -2.63124964E+00 -2.32252768E+00 -1.41981824E+00 -2.63124964E+00
 -2.32252768E+00 -1.41981824E+00 -2.63124964E+00 -2.32252768E+00 -1.41981824E+00
 -2.63124964E+00 -2.32252768E+00 -1.41981824E+00 -2.63124964E+00 -2.32252768E+00
 -1.41981824E+00 -2.63124964E+00 -2.32252768E+00 -1.41981824E+00 -2.63124964E+00
 -2.32252768E+00 -1.41981824E+00 -3.26305521E+00  1.72160723E+00  1.24564492E+00
 -3.26305521E+00  1.72160723E+00  1.24564492E+00 -3.26305521E+00  1.72160723E+00
  1.24564492E+00 -3.26305521E+00  1.72160723E+00  1.24564492E+00 -3.26305521E+00
  1.72160723E+00  1.24564492E+00 -3.26305521E+00  1.72160723E+00  1.24564492E+00
 -3.26305521E+00  1.72160723E+00  1.24564492E+00 -3.26305521E+00  1.72160723E+00
  1.24564492E+00 -3.26305521E+00  1.72160723E+00  1.24564492E+00  4.15729789E-01
  1.80950202E+00 -2.09602895E+00  4.15729789E-01  1.80950202E+00 -2.09602895E+00
  4.15729789E-01  1.80950202E+00 -2.09602895E+00  4.15729789E-01  1.80950202E+00
 -2.09602895E+00  4.15729789E-01  1.80950202E+00 -2.09602895E+00  4.15729789E-01
  1.80950202E+00 -2.09602895E+00  4.15729789E-01  1.80950202E+00 -2.09602895E+00
  4.15729789E-01  1.80950202E+00 -2.09602895E+00  4.15729789E-01  1.80950202E+00
 -2.09602895E+00  1.11488574E+00 -1.24960091E+00  1.94472302E+00  1.11488574E+00
 -1.24960091E+00  1.94472302E+00  1.11488574E+00 -1.24960091E+00  1.94472302E+00
  1.11488574E+00 -1.24960091E+00  1.94472302E+00  1.11488574E+00 -1.24960091E+00
  1.94472302E+00  1.11488574E+00 -1.24960091E+00  1.94472302E+00  1.11488574E+00
 -1.24960091E+00  1.94472302E+00  1.11488574E+00 -1.24960091E+00  1.94472302E+00
  1.11488574E+00 -1.24960091E+00  1.94472302E+00 -1.85353393E+00 -3.90257674E+00
 -9.91841782E-01 -1.85353393E+00 -3.90257674E+00 -9.91841782E-01 -1.85353393E+00
 -3.90257674E+00 -9.91841782E-01 -1.85353393E+00 -3.90257674E+00 -9.91841782E-01
 -2.62823636E+00  3.40397288E+00  1.46045861E+00 -2.62823636E+00  3.40397288E+00
  1.46045861E+00 -2.62823636E+00  3.40397288E+00  1.46045861E+00 -2.62823636E+00
  3.40397288E+00  1.46045861E+00  2.22256548E+00  1.65037764E+00 -1.89282164E+00
  2.22256548E+00  1.65037764E+00 -1.89282164E+00  2.22256548E+00  1.65037764E+00
 -1.89282164E+00  2.22256548E+00  1.65037764E+00 -1.89282164E+00  5.48266428E+00
  2.40728664E-01  2.25105032E-01  5.48266428E+00  2.40728664E-01  2.25105032E-01
  5.48266428E+00  2.40728664E-01  2.25105032E-01  5.48266428E+00  2.40728664E-01
  2.25105032E-01  5.48266428E+00  2.40728664E-01  2.25105032E-01  5.48266428E+00
  2.40728664E-01  2.25105032E-01  5.48266428E+00  2.40728664E-01  2.25105032E-01
  5.48266428E+00  2.40728664E-01  2.25105032E-01  5.48266428E+00  2.40728664E-01
  2.25105032E-01  3.85916146E+00 -3.57298264E-01  1.05333356E+00  3.85916146E+00
 -3.57298264E-01  1.05333356E+00  3.85916146E+00 -3.57298264E-01  1.05333356E+00
  3.85916146E+00 -3.57298264E-01  1.05333356E+00  6.07553210E+00 -1.27776336E+00
 -5.62484226E-01  6.07553210E+00 -1.27776336E+00 -5.62484226E-01  6.07553210E+00
 -1.27776336E+00 -5.62484226E-01  6.07553210E+00 -1.27776336E+00 -5.62484226E-01
Num ILSW                                   I              100
ILSW                                       I   N=         100
           1           0           0           0           2           0
           0           0           0           0        4639          -1
           5           0           0           0           2           0
           0           0           0           0           1           0
           1           1           0           0           0           0
           0           0      100000           0          -1           0
           0           0           0           0           0           0
           0           0           0           1           0           0
           0 -2000000000           1           0           0           0
           0           0         121          52           0           0
           0           0          58           0           0           0
           0           0           0          11           0           1
           0           0           0           0           0           0
           0           0           0           0           0           0
           0           0           0           0           0           0
           0           0           0           0           0           0
           0           0           0           0
Num RLSW                                   I               52
RLSW                                       R   N=          52
  1.00000000E+00  1.00000000E+00  1.00000000E+00  1.00000000E+00  1.00000000E+00
  0.00000000E+00  2.00000000E-01  2.22036000E-01  0.00000000E+00  7.77964000E-01
  0.00000000E+00  2.00000000E-01  0.00000000E+00  0.00000000E+00  1.00000000E+00
  0.00000000E+00  0.00000000E+00  1.00000000E+00  0.00000000E+00  0.00000000E+00
  0.00000000E+00  0.00000000E+00  1.00000000E+00  0.00000000E+00  0.00000000E+00
  0.00000000E+00  0.00000000E+00  1.00000000E+00  0.00000000E+00  0.00000000E+00
  0.00000000E+00  0.00000000E+00  1.00000000E+00  0.00000000E+00  0.00000000E+00
  0.00000000E+00  0.00000000E+00  0.00000000E+00  1.00000000E+00  1.00000000E+00
  0.00000000E+00  1.00000000E+00  0.00000000E+00  0.00000000E+00  0.00000000E+00
  0.00000000E+00  0.00000000E+00  0.00000000E+00  0.00000000E+00  0.00000000E+00
  0.00000000E+00  0.00000000E+00
MxBond                                     I                4
NBond                                      I   N=          11
           4           2           2           2           1           1
           1           1           2           1           1
IBond                                      I   N=          44
           2           3           4           5           1           6
           0           0           1           7           0           0
           1           8           0           0           1           0
           0           0           2           0           0           0
           3           0           0           0           4           0
           0           0          10          11           0           0
           9           0           0           0           9           0
           0           0
RBond                                      R   N=          44
  1.00000000E+00  1.00000000E+00  1.00000000E+00  1.00000000E+00  1.00000000E+00
  1.00000000E+00  0.00000000E+00  0.00000000E+00  1.00000000E+00  1.00000000E+00
  0.00000000E+00  0.00000000E+00  1.00000000E+00  1.00000000E+00  0.00000000E+00
  0.00000000E+00  1.00000000E+00  0.00000000E+00  0.00000000E+00  0.00000000E+00
  1.00000000E+00  0.00000000E+00  0.00000000E+00  0.00000000E+00  1.00000000E+00
  0.00000000E+00  0.00000000E+00  0.00000000E+00  1.00000000E+00  0.00000000E+00
  0.00000000E+00  0.00000000E+00  1.00000000E+00  1.00000000E+00  0.00000000E+00
  0.00000000E+00  1.00000000E+00  0.00000000E+00  0.00000000E+00  0.00000000E+00
  1.00000000E+00  0.00000000E+00  0.00000000E+00  0.00000000E+00
Virial Ratio                               R      2.006140728564433E+00
SCF Energy                                 R     -6.684197931564669E+02
Total Energy                               R     -6.684197931564669E+02
S**2                                       R     -3.197442310920451E-14
S**2 after annihilation                    R     -1.563194018672143E-13
RMS Force                                  R      2.995743692565092E-03
RMS Density                                R      3.559506688198761E-09
Job Status                                 I                1
Nuclear derivative order                   I                1
External E-field                           R   N=          35
  0.00000000E+00  0.00000000E+00  0.00000000E+00  0.00000000E+00  0.00000000E+00
  0.00000000E+00  0.00000000E+00  0.00000000E+00  0.00000000E+00  0.00000000E+00
  0.00000000E+00  0.00000000E+00  0.00000000E+00  0.00000000E+00  0.00000000E+00
  0.00000000E+00  0.00000000E+00  0.00000000E+00  0.00000000E+00  0.00000000E+00
  0.00000000E+00  0.00000000E+00  0.00000000E+00  0.00000000E+00  0.00000000E+00
  0.00000000E+00  0.00000000E+00  0.00000000E+00  0.00000000E+00  0.00000000E+00
  0.00000000E+00  0.00000000E+00  0.00000000E+00  0.00000000E+00  0.00000000E+00
IOpCl                                      I                1
IROHF                                      I                0
Alpha Orbital Energies                     R   N=         179
 -6.61445117E+01 -1.90924598E+01 -1.90915602E+01 -1.90905294E+01 -1.90829705E+01
 -1.90096413E+01 -5.25832313E+00 -3.60806438E+00 -3.60800164E+00 -3.60614407E+00
 -9.39071228E-01 -9.22111944E-01 -9.09259450E-01 -9.00075798E-01 -7.98459620E-01
 -4.81518151E-01 -4.38743895E-01 -4.17689679E-01 -3.91204241E-01 -3.39492662E-01
 -3.21792988E-01 -3.12556391E-01 -2.92884119E-01 -2.61261873E-01 -2.56747708E-01
 -2.36986280E-01 -2.27705247E-01 -2.25179861E-01 -1.76740985E-01 -1.75461135E-01
  1.90838837E-01  2.25803856E-01  2.34493208E-01  2.60059619E-01  2.74421839E-01
  2.79579254E-01  2.85668363E-01  2.95891225E-01  3.03981802E-01  3.20291162E-01
  3.31676339E-01  3.41870605E-01  3.49411585E-01  3.55063030E-01  3.74316681E-01
  3.80050938E-01  3.86686701E-01  3.92644872E-01  3.98682495E-01  4.03364799E-01
  4.12847114E-01  4.21237375E-01  4.37923819E-01  4.59024017E-01  4.66968205E-01
  4.87634408E-01  5.06584981E-01  5.19270900E-01  5.30340361E-01  5.32181954E-01
  5.37200081E-01  5.41562033E-01  5.55155186E-01  5.61624328E-01  5.68164341E-01
  5.76068799E-01  5.79116039E-01  6.07292810E-01  6.15481790E-01  6.18479120E-01
  6.30027980E-01  6.41635020E-01  6.50203584E-01  6.53036511E-01  6.61419985E-01
  6.63285623E-01  6.72831558E-01  6.83653472E-01  7.28389570E-01  7.47083522E-01
  7.55735200E-01  7.66348763E-01  7.74481736E-01  7.96457503E-01  8.10404786E-01
  8.22392628E-01  8.32307964E-01  8.44864226E-01  8.48533318E-01  8.65528164E-01
  8.73164835E-01  8.81171027E-01  8.94794060E-01  9.02539949E-01  9.10850621E-01
  9.20508731E-01  9.29808530E-01  9.42691542E-01  9.69596475E-01  9.93785234E-01
  1.01311695E+00  1.05075374E+00  1.07281216E+00  1.08735461E+00  1.10087515E+00
  1.11117747E+00  1.14308847E+00  1.16591732E+00  1.20434131E+00  1.22418695E+00
  1.23653084E+00  1.26902944E+00  1.27885119E+00  1.30531495E+00  1.33994256E+00
  1.37399760E+00  1.40943304E+00  1.42347920E+00  1.44703037E+00  1.55587827E+00
  1.59929020E+00  1.61900346E+00  1.66874717E+00  1.69306596E+00  1.70676782E+00
  1.74867353E+00  1.76096383E+00  1.78350117E+00  1.79836228E+00  1.82548453E+00
  1.88949067E+00  1.91338593E+00  1.94448301E+00  1.96798814E+00  2.00871961E+00
  2.03095259E+00  2.06378476E+00  2.08989709E+00  2.12599175E+00  2.14203815E+00
  2.14641409E+00  2.16951451E+00  2.18937263E+00  2.22247312E+00  2.25614662E+00
  2.33052895E+00  2.35210374E+00  2.36039952E+00  2.42969324E+00  2.58650715E+00
  2.60068571E+00  2.60341873E+00  2.66518593E+00  2.78559573E+00  3.12129216E+00
  3.12273889E+00  3.16586559E+00  3.20075812E+00  3.22547733E+00  3.24366383E+00
  3.25283026E+00  3.26816524E+00  3.28076725E+00  3.29064717E+00  3.30269385E+00
  3.30347894E+00  3.32840578E+00  3.34696727E+00  3.36182560E+00  3.37245489E+00
  3.45299792E+00  3.47186562E+00  3.50289714E+00  3.65896847E+00  3.95342631E+00
  4.15657619E+00  4.17270358E+00  4.21105595E+00  4.35979160E+00
Beta Orbital Energies                      R   N=         179
 -6.61445117E+01 -1.90924598E+01 -1.90915602E+01 -1.90905294E+01 -1.90829705E+01
 -1.90096413E+01 -5.25832313E+00 -3.60806438E+00 -3.60800164E+00 -3.60614407E+00
 -9.39071228E-01 -9.22111944E-01 -9.09259450E-01 -9.00075798E-01 -7.98459620E-01
 -4.81518151E-01 -4.38743895E-01 -4.17689679E-01 -3.91204241E-01 -3.39492662E-01
 -3.21792988E-01 -3.12556391E-01 -2.92884119E-01 -2.61261873E-01 -2.56747708E-01
 -2.36986280E-01 -2.27705247E-01 -2.25179861E-01 -1.76740985E-01 -1.75461135E-01
  1.90838837E-01  2.25803856E-01  2.34493208E-01  2.60059619E-01  2.74421839E-01
  2.79579254E-01  2.85668363E-01  2.95891225E-01  3.03981802E-01  3.20291162E-01
  3.31676339E-01  3.41870605E-01  3.49411585E-01  3.55063030E-01  3.74316681E-01
  3.80050938E-01  3.86686701E-01  3.92644872E-01  3.98682495E-01  4.03364799E-01
  4.12847114E-01  4.21237375E-01  4.37923819E-01  4.59024017E-01  4.66968205E-01
  4.87634408E-01  5.06584981E-01  5.19270900E-01  5.30340361E-01  5.32181954E-01
  5.37200081E-01  5.41562033E-01  5.55155186E-01  5.61624328E-01  5.68164341E-01
  5.76068799E-01  5.79116039E-01  6.07292810E-01  6.15481790E-01  6.18479120E-01
  6.30027980E-01  6.41635020E-01  6.50203584E-01  6.53036511E-01  6.61419985E-01
  6.63285623E-01  6.72831558E-01  6.83653472E-01  7.28389570E-01  7.47083522E-01
  7.55735200E-01  7.66348763E-01  7.74481736E-01  7.96457503E-01  8.10404786E-01
  8.22392628E-01  8.32307964E-01  8.44864226E-01  8.48533318E-01  8.65528164E-01
  8.73164835E-01  8.81171027E-01  8.94794060E-01  9.02539949E-01  9.10850621E-01
  9.20508731E-01  9.29808530E-01  9.42691542E-01  9.69596475E-01  9.93785234E-01
  1.01311695E+00  1.05075374E+00  1.07281216E+00  1.08735461E+00  1.10087515E+00
  1.11117747E+00  1.14308847E+00  1.16591732E+00  1.20434131E+00  1.22418695E+00
  1.23653084E+00  1.26902944E+00  1.27885119E+00  1.30531495E+00  1.33994256E+00
  1.37399760E+00  1.40943304E+00  1.42347920E+00  1.44703037E+00  1.55587827E+00
  1.59929020E+00  1.61900346E+00  1.66874717E+00  1.69306596E+00  1.70676782E+00
  1.74867353E+00  1.76096383E+00  1.78350117E+00  1.79836228E+00  1.82548453E+00
  1.88949067E+00  1.91338593E+00  1.94448301E+00  1.96798814E+00  2.00871961E+00
  2.03095259E+00  2.06378476E+00  2.08989709E+00  2.12599175E+00  2.14203815E+00
  2.14641409E+00  2.16951451E+00  2.18937263E+00  2.22247312E+00  2.25614662E+00
  2.33052895E+00  2.35210374E+00  2.36039952E+00  2.42969324E+00  2.58650715E+00
  2.60068571E+00  2.60341873E+00  2.66518593E+00  2.78559573E+00  3.12129216E+00
  3.12273889E+00  3.16586559E+00  3.20075812E+00  3.22547733E+00  3.24366383E+00
  3.25283026E+00  3.26816524E+00  3.28076725E+00  3.29064717E+00  3.30269385E+00
  3.30347894E+00  3.32840578E+00  3.34696727E+00  3.36182560E+00  3.37245489E+00
  3.45299792E+00  3.47186562E+00  3.50289714E+00  3.65896847E+00  3.95342631E+00
  4.15657619E+00  4.17270358E+00  4.21105595E+00  4.35979160E+00
Alpha MO coefficients                      R   N=       32041
  9.94607938E-01 -2.21221546E-02 -3.15902878E-02  2.01160186E-02  8.37509135E-04
 -5.37152104E-06  4.57057355E-06 -6.57974101E-06 -4.06853650E-04  2.40090257E-04
 -3.40173917E-04 -1.57929110E-04 -1.45455849E-03  1.83704153E-03  3.66155889E-04
 -6.07978170E-04  3.42503010E-04 -2.79940741E-04  4.21039494E-04 -5.34096714E-04
  1.63468626E-03  2.88869185E-04  6.61277307E-04 -1.28360343E-03 -7.98955190E-05
 -1.23642984E-03  3.42000035E-03 -1.83864141E-03 -2.11811538E-04 -3.46193611E-04
 -1.74765210E-04  2.10878952E-03  2.36447397E-03  1.71567334E-03  1.41415088E-04
 -4.60798745E-05  3.43964936E-04 -1.09669314E-04  2.46711447E-04  1.71598909E-04
 -8.59608045E-05  1.68297817E-04 -2.04473036E-04  9.60944131E-04  1.49482612E-03
 -2.41599777E-04  1.74581107E-03 -7.70166958E-05 -1.23331215E-03  3.49482570E-03
 -3.60004086E-03 -3.07519675E-04  2.72768313E-04  1.38763850E-04  2.96895187E-03
 -1.89099005E-03 -1.34520657E-03 -2.18420958E-06 -6.14161795E-04  8.07419164E-04
 -1.64408507E-04 -2.28628977E-04  1.60812402E-04  5.24663557E-05 -2.12576213E-04
 -4.31935053E-04 -1.29078202E-03  9.11885902E-04  9.19300306E-04 -1.59995577E-03
 -8.92500273E-05 -1.32930320E-03  3.85658268E-03  3.31418902E-04  2.41558411E-04
  2.54930660E-04 -2.80775340E-04 -1.51417061E-03 -2.19584900E-03  2.51284531E-03
 -4.86965125E-06 -3.60585819E-04  1.40906158E-04  5.13486843E-05 -1.42701701E-04
 -3.00265520E-04  2.40426631E-05  1.29146637E-04  6.84302407E-04 -1.10480075E-03
 -1.71107883E-03 -7.02065132E-04  9.26808308E-04 -8.56228309E-05 -1.52951410E-03
  4.98256122E-03 -7.54478191E-03  1.96735315E-04 -1.19125190E-04  2.18283656E-04
 -3.10886891E-03  1.88996354E-03 -3.21980322E-03 -5.28677009E-04 -5.72146081E-04
  1.02596374E-03  6.58130304E-05  4.67494125E-04 -2.77438537E-04  1.92865188E-04
 -2.56815941E-04  4.37854909E-04  2.06897097E-03 -1.20459522E-03  4.98878742E-04
 -1.45996642E-03 -4.21173267E-06 -9.38538031E-04 -1.56323917E-04 -4.08367078E-04
 -1.54835562E-04  3.19503766E-04 -5.77084511E-04  2.93932015E-04 -6.38181424E-05