0006_hf_0.85/0006_q000_m01_k00_force_uccsd_augccpvqz stable-force       
Stability UHF                                                         CC-pVTZ             
Number of atoms                            I                1
Info1-9                                    I   N=           9
          12          10           0           0           0         111
           7           1           2
Full Title                                 C   N=           6
0006_hf_0.85/0006_q000_m01_k00_force_uccsd_augccpvqz stable-
force       
Route                                      C   N=          13
#p uhf/cc-pvtz 5d,7f stable=opt scf=(maxcycle=900,verytightl
ineq,xqc) integral=grid=ultrafine symmetry=None density=curr
ent iop(99/18=-1) output=wfn        
Charge                                     I                0
Multiplicity                               I                1
Number of electrons                        I                6
Number of alpha electrons                  I                3
Number of beta electrons                   I                3
Number of basis functions                  I               30
Number of independent functions            I               30
Number of point charges in /Mol/           I                0
Number of translation vectors              I                0
Atomic numbers                             I   N=           1
           6
Nuclear charges                            R   N=           1
  6.00000000E+00
Current cartesian coordinates              R   N=           3
  0.00000000E+00  0.00000000E+00  0.00000000E+00
Number of symbols in /Mol/                 I                0
Int Atom Types                             I   N=           1
           0
Force Field                                I                0
Atom Types                                 C   N=           1
            
MM charges                                 R   N=           1
  0.00000000E+00
Integer atomic weights                     I   N=           1
          12
Real atomic weights                        R   N=           1
  1.20000000E+01
Atom fragment info                         I   N=           1
           0
Atom residue num                           I   N=           1
           0
Nuclear spins                              I   N=           1
           0
Nuclear ZEff                               R   N=           1
 -3.60000000E+00
Nuclear ZNuc                               R   N=           1
  6.00000000E+00
Nuclear QMom                               R   N=           1
  0.00000000E+00
Nuclear GFac                               R   N=           1
  0.00000000E+00
MicOpt                                     I   N=           1
          -1
Number of residues                         I                0
Number of secondary structures             I                0
Number of contracted shells                I               10
Number of primitive shells                 I               23
Pure/Cartesian d shells                    I                0
Pure/Cartesian f shells                    I                0
Highest angular momentum                   I                3
Largest degree of contraction              I                7
Shell types                                I   N=          10
           0           0           0           0           1           1
           1          -2          -2          -3
Number of primitives per shell             I   N=          10
           7           6           1           1           3           1
           1           1           1           1
Shell to atom map                          I   N=          10
           1           1           1           1           1           1
           1           1           1           1
Primitive exponents                        R   N=          23
  8.23600000E+03  1.23500000E+03  2.80800000E+02  7.92700000E+01  2.55900000E+01
  8.99700000E+00  3.31900000E+00  2.80800000E+02  7.92700000E+01  2.55900000E+01
  8.99700000E+00  3.31900000E+00  3.64300000E-01  9.05900000E-01  1.28500000E-01
  1.87100000E+01  4.13300000E+00  1.20000000E+00  3.82700000E-01  1.20900000E-01
  1.09700000E+00  3.18000000E-01  7.61000000E-01
Contraction coefficients                   R   N=          23
  5.41978320E-04  4.19287382E-03  2.15221621E-02  8.35343220E-02  2.39582846E-01
  4.42852842E-01  3.51799562E-01 -5.94922494E-05 -1.14815831E-03 -1.00191374E-02
 -6.12194923E-02 -1.73269854E-01  1.07291519E+00  1.00000000E+00  1.00000000E+00
  3.94263872E-02  2.44088985E-01  8.15492009E-01  1.00000000E+00  1.00000000E+00
  1.00000000E+00  1.00000000E+00  1.00000000E+00
Coordinates of each shell                  R   N=          30
  0.00000000E+00  0.00000000E+00  0.00000000E+00  0.00000000E+00  0.00000000E+00
  0.00000000E+00  0.00000000E+00  0.00000000E+00  0.00000000E+00  0.00000000E+00
  0.00000000E+00  0.00000000E+00  0.00000000E+00  0.00000000E+00  0.00000000E+00
  0.00000000E+00  0.00000000E+00  0.00000000E+00  0.00000000E+00  0.00000000E+00
  0.00000000E+00  0.00000000E+00  0.00000000E+00  0.00000000E+00  0.00000000E+00
  0.00000000E+00  0.00000000E+00  0.00000000E+00  0.00000000E+00  0.00000000E+00
Num ILSW                                   I              100
ILSW                                       I   N=         100
           1           0           0           0           2           1
           0           0           0           0           0          -1
           5           0           0           0           0           0
           0           0           0           0           0           0
           1           1           0           0           0           0
           0           0      100000           0          -1           0
           0           0           0           0           0           0
           0           0           0           1           0           0
           0 -2000000000           1           0           0           0
           0           0           4          52           0           0
           0           0           0           0           0           0
           0           0           0           1           0           1
           0           0           0           0           0           0
           0           0           0           0           0           0
           0           0           0           0           0           0
           0           0           0           0           0           0
           0           0           0           0
Num RLSW                                   I               52
RLSW                                       R   N=          52
  1.00000000E+00  1.00000000E+00  1.00000000E+00  1.00000000E+00  1.00000000E+00
  0.00000000E+00  0.00000000E+00  1.00000000E+00  0.00000000E+00  0.00000000E+00
  0.00000000E+00  0.00000000E+00  1.00000000E+00  0.00000000E+00  0.00000000E+00
  0.00000000E+00  0.00000000E+00  1.00000000E+00  0.00000000E+00  0.00000000E+00
  0.00000000E+00  0.00000000E+00  1.00000000E+00  0.00000000E+00  0.00000000E+00
  0.00000000E+00  0.00000000E+00  1.00000000E+00  0.00000000E+00  0.00000000E+00
  0.00000000E+00  0.00000000E+00  1.00000000E+00  0.00000000E+00  0.00000000E+00
  0.00000000E+00  0.00000000E+00  0.00000000E+00  1.00000000E+00  1.00000000E+00
  0.00000000E+00  1.00000000E+00  0.00000000E+00  0.00000000E+00  0.00000000E+00
  0.00000000E+00  0.00000000E+00  0.00000000E+00  0.00000000E+00  0.00000000E+00
  0.00000000E+00  0.00000000E+00
MxBond                                     I                1
NBond                                      I   N=           1
           0
IBond                                      I   N=           1
           0
RBond                                      R   N=           1
  0.00000000E+00
Virial Ratio                               R      1.999948157359549E+00
SCF Energy                                 R     -3.766928021662538E+01
Total Energy                               R     -3.766928021662538E+01
S**2                                       R      1.016928601612325E+00
S**2 after annihilation                    R      1.331764931622512E-01
RMS Density                                R      4.769425498871249E-09
Job Status                                 I                1
Nuclear derivative order                   I                0
External E-field                           R   N=          35
  0.00000000E+00  0.00000000E+00  0.00000000E+00  0.00000000E+00  0.00000000E+00
  0.00000000E+00  0.00000000E+00  0.00000000E+00  0.00000000E+00  0.00000000E+00
  0.00000000E+00  0.00000000E+00  0.00000000E+00  0.00000000E+00  0.00000000E+00
  0.00000000E+00  0.00000000E+00  0.00000000E+00  0.00000000E+00  0.00000000E+00
  0.00000000E+00  0.00000000E+00  0.00000000E+00  0.00000000E+00  0.00000000E+00
  0.00000000E+00  0.00000000E+00  0.00000000E+00  0.00000000E+00  0.00000000E+00
  0.00000000E+00  0.00000000E+00  0.00000000E+00  0.00000000E+00  0.00000000E+00
IOpCl                                      I                1
IROHF                                      I                0
Alpha Orbital Energies                     R   N=          30
 -1.13345265E+01 -7.15183204E-01 -4.17062903E-01  4.88771882E-02  1.03775263E-01
  4.30557286E-01  4.97844884E-01  5.21989090E-01  5.44120661E-01  8.39195929E-01
  8.39399694E-01  8.76552782E-01  8.93771028E-01  9.03823257E-01  2.26417498E+00
  2.30179647E+00  2.35739535E+00  2.93418192E+00  2.93423404E+00  2.96595906E+00
  2.96782392E+00  2.98287579E+00  2.99417866E+00  2.99703815E+00  3.24190451E+00
  3.24197978E+00  3.29441517E+00  3.30259862E+00  3.31845647E+00  4.14853450E+00
Beta Orbital Energies                      R   N=          30
 -1.13345265E+01 -7.15183204E-01 -4.17062903E-01  4.88771882E-02  1.03775263E-01
  4.30557286E-01  4.97844884E-01  5.21989090E-01  5.44120661E-01  8.39195929E-01
  8.39399694E-01  8.76552782E-01  8.93771028E-01  9.03823257E-01  2.26417498E+00
  2.30179647E+00  2.35739535E+00  2.93418192E+00  2.93423404E+00  2.96595906E+00
  2.96782392E+00  2.98287579E+00  2.99417866E+00  2.99703815E+00  3.24190451E+00
  3.24197978E+00  3.29441517E+00  3.30259862E+00  3.31845647E+00  4.14853450E+00
Alpha MO coefficients                      R   N=         900
  9.79803505E-01 -8.34107814E-03  3.92836882E-02  2.38119131E-03  8.26804900E-16
 -1.20274006E-17 -1.03037973E-16  7.49245624E-16 -6.09721617E-18  5.08951574E-17
  8.30571963E-16 -2.64297195E-18 -2.59884998E-17  9.42190541E-05 -1.62170899E-03
  1.35827189E-04  2.09221942E-04 -5.37184127E-04  7.76471563E-05  1.11869862E-05
  1.14391021E-04  1.72418258E-04  4.26954999E-06  2.41855102E-17  1.86819684E-17
 -2.77490541E-18 -3.01613755E-17 -7.64201664E-18 -3.63410703E-17  8.98225477E-18
 -2.09362127E-01  5.59438151E-01  1.41239866E-01  3.90834276E-01  1.22472555E-15
 -5.50566403E-16 -1.38822056E-15  1.84644305E-15 -7.25946971E-16 -1.77743216E-15
  9.45991742E-16 -2.09391429E-16 -3.59393844E-16  3.70281614E-04 -2.16205152E-02
  5.06021644E-04  8.22250836E-04 -7.16808292E-03  1.88827018E-03 -4.75966788E-02
  2.69463898E-03  4.19306223E-03 -1.57725121E-02  2.36771716E-17  3.64778969E-17
  2.26557542E-19 -8.27054201E-18  2.20548413E-17 -1.60785293E-17 -6.16499609E-19
  3.28216874E-15  1.44197598E-14 -4.81144319E-15 -1.62053243E-14  2.49496834E-01
 -7.81727259E-02 -2.36798642E-01  3.49808732E-01 -1.09602601E-01 -3.32005142E-01
  2.50607331E-01 -7.85206689E-02 -2.37852621E-01  1.31559079E-16  1.48690939E-17
  4.45462610E-17 -1.68697079E-16  5.87952932E-17 -6.77683845E-17  5.67391047E-16
  2.35027600E-16 -1.49209832E-16  1.23733455E-16  6.34241021E-03  7.53222955E-03
  3.40607505E-03 -4.95515661E-03  2.60220773E-03 -3.98936386E-03 -1.81109134E-03
 -3.73252706E-17  1.95490949E-17  5.92099279E-18  1.98892970E-16 -3.51442749E-04
  2.40547368E-01 -7.97805562E-02 -4.11353829E-04  2.81553912E-01 -9.33808914E-02
 -9.01377277E-04  6.16953780E-01 -2.04620471E-01  2.59624538E-17  4.91659502E-17
 -4.58295340E-17  1.72928248E-17 -1.52487717E-16  6.14642365E-16 -4.38915426E-16
 -1.08338654E-15  5.72743023E-16  1.25048168E-15  2.13704816E-03  4.26721662E-03
 -1.58300797E-03  3.00076605E-03 -7.22950096E-03  3.31963287E-03 -3.65597532E-03
 -7.31135088E-16 -6.00056939E-15  7.25658606E-16  6.44520872E-15  1.69493763E-01
  5.36074032E-02  1.60885722E-01  1.65322505E-01  5.22881199E-02  1.56926309E-01
  5.07812607E-01  1.60610719E-01  4.82022446E-01  6.14261046E-19 -1.39510267E-16
 -6.97376344E-17 -3.82489928E-17 -1.95011419E-17 -2.03397825E-16  2.46870264E-16
  6.33468908E-16 -3.56001540E-16 -6.47994014E-16  3.62193647E-03 -7.19853750E-03
 -1.70302526E-03 -7.44986634E-03 -5.15174078E-03 -1.92928013E-03 -3.22673307E-03
 -1.23243170E-16 -6.16983627E-15 -6.84469183E-16  8.02319204E-15 -1.58705607E-01
  4.97258809E-02  1.50628252E-01 -5.88184461E-01  1.84290845E-01  5.58248690E-01
  8.80813049E-01 -2.75977677E-01 -8.35983886E-01 -7.20517574E-17  6.09432204E-17
  3.34229855E-17  7.29453355E-17  1.13911081E-17 -8.61651386E-16  7.89855483E-16
 -4.79460810E-16 -1.22711932E-17 -5.78877968E-17 -2.46421902E-03 -2.66867834E-03
 -1.64389366E-03  1.51428712E-03 -6.90526102E-04  1.92347053E-03  5.11412089E-04
 -2.37044612E-17  9.95019143E-16  1.93281646E-16 -1.27295520E-15  3.71043962E-04
 -2.53963550E-01  8.42302014E-02  1.35501605E-03 -9.27449899E-01  3.07600409E-01
 -1.56788765E-03  1.07315131E+00 -3.55924111E-01  2.41846123E-17 -1.13591766E-17
  3.79356395E-17 -2.79971397E-18 -1.86641849E-17 -2.60939296E-19  5.85035241E-16
  1.41272833E-15 -3.55791009E-16 -1.59801501E-16 -1.96186051E-03 -3.03214931E-03
  1.45462159E-03 -2.74988973E-03  5.13443248E-03 -2.36178530E-03  3.35808389E-03
  3.14963920E-02 -1.40259349E+00 -2.36615429E-01  1.68812913E+00  1.27980151E-14
  3.78028459E-15  1.20640203E-14  5.22684453E-14  1.46566613E-14  4.63465384E-14
 -6.88354054E-14 -1.79241954E-14 -5.62692159E-14  2.46207247E-03  1.41443441E-02
  3.65231691E-03  5.46718843E-03  4.70890448E-03 -9.61381291E-03  2.46742074E-03
 -1.41563168E-02 -2.13481217E-02  7.49113300E-04  1.30874904E-16 -3.66593671E-16
 -1.17852456E-16 -3.48785065E-16 -2.62943054E-16 -1.08582773E-16 -1.56751827E-16
  3.82352030E-15 -1.06142624E-13 -2.09731918E-14  1.29245339E-13 -1.95139277E-01
 -6.17185537E-02 -1.85228784E-01 -7.07111086E-01 -2.23644744E-01 -6.71199200E-01
  7.72157550E-01  2.44217607E-01  7.32942164E-01  2.01627455E-16  1.21175358E-15
  3.74233134E-16  5.23668281E-16  4.51115303E-16 -4.27349209E-16 -3.07632675E-16
 -1.02336223E-15 -1.66444757E-15 -9.88047361E-16 -2.74952018E-03  5.95023928E-03
  1.90114997E-03  6.42995683E-03  4.52224746E-03  2.16953340E-03  2.81971968E-03
 -1.36362527E-11  1.16441683E-10  2.15205920E-11 -5.22373619E-11  7.66288860E-16
 -9.11803493E-16  1.20452912E-15 -1.47241789E-15 -1.74268444E-15  1.12882959E-16
  2.39607266E-15  6.60175220E-16  1.19980409E-15 -1.03924256E-02  6.29538903E-03
  1.61101242E-02 -5.94437296E-03 -1.90697255E-02  3.71439647E-01 -2.25005900E-01
 -5.75798094E-01  2.12460101E-01  6.81578332E-01  4.97754782E-16 -2.21105569E-16
  2.39202048E-16  2.32127169E-16  1.03519109E-16 -3.53625674E-17 -1.77656286E-17
  8.65109431E-03 -5.97681787E-02 -1.14085389E-02  2.59499598E-02  4.79472632E-17
  1.06559051E-16  5.74212478E-16 -1.31840229E-16  4.18433685E-16  1.10678595E-15
 -4.39430667E-17 -9.07269649E-16 -1.69632930E-15 -8.30640562E-03  1.42684234E-02
 -1.22090509E-02 -1.84449436E-02  4.67249914E-03  2.81640165E-01 -5.89650838E-01
  4.13771879E-01  6.25401379E-01 -1.93537581E-01 -3.39552368E-16 -1.78603953E-16
 -4.20044445E-17  2.42237141E-16  1.22667161E-17 -7.65030163E-17 -7.02341236E-18
 -7.77719777E-10 -1.83735722E-10 -5.73472966E-11 -1.00821644E-10 -2.53692428E-16
  8.30743927E-16 -1.14187080E-17 -7.24396114E-16  8.44872582E-16  5.74560714E-16
  9.35050855E-16 -1.26605005E-15 -8.41096572E-16 -2.62978528E-02  1.82756196E-06
 -1.00713107E-02  1.85232762E-02  4.98515377E-05  7.93864444E-01 -5.51691480E-05
  3.04026930E-01 -5.59170001E-01 -1.50488943E-03 -5.81827957E-17 -1.07747131E-16
 -1.32566751E-16  7.39359804E-17  4.00999615E-17  2.42641272E-17 -5.58324439E-18
  1.70629134E-12 -1.22201112E-11 -2.73086389E-12 -3.15694584E-12 -4.59963481E-16
  4.59644536E-16 -3.28358712E-16 -7.04368620E-16  4.20562852E-16 -1.02501244E-15
  8.46907026E-16 -1.61568775E-16  4.44445300E-16  1.62060849E-02  9.89841982E-03
 -2.50935344E-02  9.44343175E-03 -2.97068443E-02 -3.74230926E-01 -2.28574319E-01
  5.79459920E-01 -2.18067734E-01  6.85990474E-01 -4.57474698E-16 -5.99640034E-17
  1.89451964E-16 -2.18371438E-17 -9.12760843E-17  1.64569289E-16 -4.39594727E-16
 -1.34412532E-02  4.43821054E-03  1.45899140E-02  3.37941466E-02 -1.19328654E-17
  4.26266035E-16 -1.15961262E-15 -1.00280892E-15  6.58296570E-16 -1.12018593E-15
  2.79225214E-16 -6.32193169E-16  1.11634447E-15 -1.06167165E-02 -3.14345765E-02
 -1.56953254E-02 -2.35751139E-02 -1.05021870E-02  2.21025856E-01  7.63507899E-01
  3.26954448E-01  4.90802308E-01  2.54820096E-01  9.37114509E-17  7.00280086E-18
 -4.71438403E-16 -1.77429809E-16  1.40877275E-16  7.63758855E-18  9.48232198E-18
 -2.82939109E-17  6.08787639E-17 -4.09571540E-18  8.03551139E-17 -8.98227618E-01
  2.81434037E-01  8.52512138E-01  1.04459490E+00 -3.27294054E-01 -9.91430022E-01
 -4.34038037E-01  1.35993455E-01  4.11947581E-01 -2.42203809E-16  2.68403278E-15
  2.13503076E-15  1.10550352E-15 -1.53041026E-15  5.26539199E-16 -3.81383758E-16
 -1.15967554E-15 -3.89685924E-17  9.38801716E-16  6.69747376E-03  4.93187167E-03
  7.35381520E-03 -4.15747088E-04 -1.00894693E-03 -8.59042229E-03  3.40980282E-04
 -3.34583584E-17 -2.49219779E-17  7.06606968E-17 -2.17052523E-17  1.78215620E-03
 -1.21980884E+00  4.04564925E-01 -1.99722005E-03  1.36701075E+00 -4.53386287E-01
  8.22850579E-04 -5.63205635E-01  1.86794223E-01 -1.07368321E-15 -1.38323620E-15
 -3.07813840E-15 -2.01800264E-15  1.39832379E-15  9.40478576E-16  1.33780850E-15
  2.73191815E-15  5.17411565E-16 -9.59790451E-16  6.28256416E-03  3.30531086E-03
 -4.66821344E-03  8.77077367E-03 -5.57247263E-03  2.60221349E-03 -1.07668733E-02
  9.90696953E-16  1.12214407E-15 -2.23596279E-15  4.53142513E-16 -9.09086048E-01
 -2.87525284E-01 -8.62916504E-01  1.01498124E+00  3.21017764E-01  9.63433625E-01
 -4.14510036E-01 -1.31101028E-01 -3.93458410E-01  3.11000702E-16 -1.27194225E-15
 -2.52739613E-15  3.46997997E-16 -9.78198929E-16  3.64681589E-16 -1.28114141E-16
  7.47844280E-16  1.55057034E-16  9.71137156E-16  1.05904894E-03 -7.17803083E-03
 -6.85318204E-03 -1.02699177E-02 -7.89370073E-03 -7.92879197E-03 -4.81105928E-03
  1.83918248E-18 -6.03974865E-18  7.10972483E-19 -3.28681850E-18  1.67272272E-05
 -1.14490645E-02  3.79722606E-03 -1.94281234E-05  1.32977141E-02 -4.41035393E-03
  9.11832849E-06 -6.24110176E-03  2.06993979E-03 -1.01054887E-15  3.94060633E-16
  1.05600937E-14  8.93447459E-17 -2.32759738E-15  8.23728605E-16  1.62873876E-17
 -4.85444351E-15  1.01018841E-16  1.07416803E-15 -3.28470796E-01  2.61040618E-01
  2.44745621E-01 -4.56168008E-01 -4.44970262E-01  2.00008677E-01  5.63811854E-01
  8.33187691E-17  2.93747085E-16 -1.76451706E-16 -1.39428500E-16 -7.57199840E-03
  2.37247000E-03  7.18661996E-03  8.82694991E-03 -2.76567331E-03 -8.37770047E-03
 -4.24665567E-03  1.33056858E-03  4.03052124E-03 -8.30468600E-15 -2.47293552E-16
  6.06195250E-15 -5.14869502E-15  1.14612279E-14  3.93175025E-15 -8.35526353E-16
 -3.37219535E-15  2.29154227E-15 -6.42486295E-15 -1.11065974E-01  2.07559042E-01
 -4.81671499E-01 -4.54293138E-01  3.76431125E-01  5.61604226E-01 -2.21413112E-01
 -1.36646006E-16  4.63535727E-17  2.77484394E-16 -8.76982339E-17 -9.27286759E-03
 -2.93281794E-03 -8.80192854E-03  1.36004816E-02  4.30155361E-03  1.29097572E-02
 -5.58576229E-03 -1.76666211E-03 -5.30207942E-03 -1.03944800E-14  1.05344620E-14
  1.47078402E-14 -6.94009743E-15 -9.27724498E-15  5.22823539E-15 -4.77775755E-15
 -6.30012104E-15  3.61419923E-15  4.11530849E-15  3.83160343E-01 -1.68783899E-01
  5.62369620E-01  1.57291734E-01  2.01286866E-01  6.56376811E-01  1.10526238E-01
  4.73847026E-17  9.76300072E-17 -9.17761970E-17 -1.80856058E-17 -1.78047547E-13
  2.60337186E-11 -1.10335780E-11  2.37539208E-12 -3.57658029E-11  1.25021128E-11
  1.32931241E-13  1.39086837E-11 -6.31040118E-12 -2.79769412E-15  5.93488897E-15
 -3.11909785E-15 -1.17124563E-15 -8.08244772E-15  4.26702880E-16 -4.14427789E-15
  2.73791345E-15  5.96792000E-17  4.08354277E-15  5.49195820E-01  9.60676385E-04
 -5.27290227E-01  1.10605889E-01  2.24506207E-07 -2.65263819E-03  6.38832800E-01
 -1.52573635E-17 -1.63400990E-16  3.30667030E-17  1.13681187E-16  1.93851989E-05
 -1.32683309E-02  4.40060862E-03 -4.45416813E-05  3.04868558E-02 -1.01113487E-02
  1.52589204E-05 -1.04440716E-02  3.46390752E-03 -3.97904698E-15 -1.39528065E-17
 -6.57186621E-15 -2.01309736E-15 -4.86225066E-15  1.83162186E-15 -3.59283714E-17
  3.00950727E-15  8.00331251E-16  2.58245821E-15 -2.17852692E-01 -3.93719089E-01
  1.61437814E-01 -3.05673126E-01  6.66914968E-01 -3.06427308E-01  3.72778078E-01
  9.54394222E-16  2.06347325E-15 -2.02479793E-15 -6.88222282E-16  6.29286501E-03
 -1.97169001E-03 -5.97258840E-03 -1.90352896E-02  5.96416576E-03  1.80664846E-02
  5.92920105E-03 -1.85774626E-03 -5.62743316E-03  1.61661703E-15  5.47034017E-16
  7.36304751E-15  7.06608448E-16  2.39552576E-15 -7.66030364E-16 -5.62751655E-16
 -2.56236792E-15 -4.47985416E-16 -1.13244904E-15  5.08729788E-01  5.87773358E-01
  2.93583928E-01 -3.71328588E-01  1.88346469E-01 -3.43736757E-01 -1.33045329E-01
 -1.19975696E-15 -2.93255304E-15  2.55452045E-15  1.08245957E-15 -9.52175245E-03
 -3.01153515E-03 -9.03817344E-03  2.49807398E-02  7.90089595E-03  2.37120486E-02
 -8.10056035E-03 -2.56204122E-03 -7.68915910E-03 -5.04669030E-15 -7.46861289E-15
  9.40112166E-15 -5.35143149E-15 -5.00327006E-15  2.47977018E-15  3.90290158E-15
 -5.05353268E-15  2.72416651E-15  3.00616288E-15 -3.53435645E-01  5.99608718E-01
  3.73578259E-02  5.62947895E-01  3.73239141E-01  3.89735822E-02  2.36471440E-01
 -6.56520036E-03 -3.05237699E-02  1.48638186E-02  8.30064783E-03  2.98206588E-16
 -3.50474674E-15  9.20374061E-16 -5.19019584E-16  4.57318962E-15 -9.80306623E-16
 -2.42246294E-16 -1.86416712E-15 -9.49409457E-17  3.45949208E-01 -6.19117133E-01
  5.08443188E-01  7.68203971E-01 -2.02847327E-01 -1.76107538E-01  3.20360254E-01
 -2.58816617E-01 -3.91058884E-01  1.04983632E-01  3.76217286E-15 -6.48403484E-15
 -3.33582072E-15 -9.96233288E-16  5.39945938E-15  4.50600200E-15  9.42543607E-16
 -3.67334349E-11 -1.51197536E-10  7.68057833E-11  4.56693677E-11 -1.89001744E-15
  4.12574811E-15  2.77735724E-15  2.18131462E-15 -4.84057556E-15 -2.96246656E-15
 -7.61495002E-16  2.28657647E-15  7.16894660E-16  4.32008346E-01 -2.61696425E-01
 -6.69690437E-01  2.47104850E-01  7.92719700E-01 -2.20843385E-01  1.33779648E-01
  3.42346865E-01 -1.26320411E-01 -4.05239629E-01  5.76123723E-15  4.69593915E-15
  1.12745515E-14  4.63480083E-15  5.27340238E-15  1.38637665E-14  1.24818712E-14
  2.86039163E-10  2.05970867E-10  8.87503366E-11  1.12879959E-10 -8.24067230E-16
 -9.27716517E-16 -2.55407478E-16  8.05103525E-16  1.69312405E-15  6.73141133E-17
 -3.39864265E-16 -5.51074004E-16 -3.77095585E-17  9.20751058E-01 -6.39865842E-05
  3.52620803E-01 -6.48544439E-01 -1.74542198E-03 -4.67175910E-01  3.24658549E-05
 -1.78914749E-01  3.29062167E-01  8.85602127E-04  1.19352864E-17 -4.42735716E-15
 -3.03520245E-15 -4.84107038E-16  2.90825959E-15  3.35702808E-16  1.21025796E-15
 -5.73628396E-12 -1.94964809E-12  6.10548355E-13  6.18023135E-13 -2.47683596E-15
 -2.03085270E-16 -1.55747337E-15  3.17814809E-15 -3.58675613E-16  1.59774867E-15
 -1.28396536E-15  8.21833308E-16 -9.42127661E-16 -4.31655183E-01 -2.63648145E-01
  6.68375755E-01 -2.51529366E-01  7.91253002E-01  2.15731426E-01  1.31765336E-01
 -3.34038974E-01  1.25708647E-01 -3.95450222E-01  3.79436511E-15 -1.18678383E-14
 -1.09717231E-15  5.25414651E-15 -4.42447451E-15 -1.24505337E-14  5.41776471E-15
  1.60844446E-02  7.52025836E-02 -3.43507351E-02 -3.60476311E-02  1.41926313E-15
 -5.49189534E-15 -3.64922669E-15 -7.39167213E-16  6.70822688E-15  3.99822928E-15
  9.66304673E-16 -2.54643323E-15 -1.10255141E-15  2.28473825E-01  9.32836068E-01
  3.38233549E-01  5.07340913E-01  3.11033822E-01 -1.13070608E-01 -4.69085077E-01
 -1.67403708E-01 -2.51080597E-01 -1.56393073E-01 -6.61802409E-15  4.53359659E-16
 -2.85082848E-15  4.56462301E-15  4.86868643E-15 -3.97576605E-15  1.66522947E-15
  1.16601912E+00  2.84620044E+00 -2.45047809E+00 -1.21855949E+00  1.28278655E-14
  5.63333028E-16  1.63765399E-15  1.55541815E-14  2.54632968E-16  7.97672179E-16
  1.25265056E-14  1.43352142E-16  3.40311596E-16 -1.34374392E-03 -1.97233408E-02
 -2.01522229E-03 -2.98386076E-03 -6.55120311E-03  1.55994014E-03  1.28284453E-02
  2.32110990E-03  3.46394366E-03  4.26597058E-03 -6.39756451E-16  3.49217032E-17
 -7.22164562E-17  8.54385755E-16  1.91254279E-16  4.37648170E-16  3.48627015E-16
Beta MO coefficients                       R   N=         900
  9.79803505E-01 -8.34107814E-03  3.92836882E-02  2.38119131E-03  8.26268919E-16
 -1.27768312E-19 -6.26366369E-17  7.47875307E-16  1.99847504E-17  1.14835613E-16
  8.32210397E-16 -2.59268001E-18 -2.07098315E-17  9.31452866E-05  1.62130577E-03
  1.40154053E-04  2.06835381E-04  5.38399860E-04  7.76546751E-05 -1.15211945E-05
  1.14360724E-04  1.72434970E-04 -3.26187770E-06  1.60703682E-17  1.88133911E-17
 -2.71399663E-18 -2.16439531E-17 -8.01504384E-18 -3.81069902E-17  1.19019675E-17
 -2.09362127E-01  5.59438151E-01  1.41239866E-01  3.90834276E-01  1.21417513E-15
  5.56782190E-16  1.32332657E-15  1.81566934E-15  9.40982366E-16  2.04750370E-15
  9.71697767E-16  3.30616923E-17  4.10690954E-17  3.55964956E-04  2.16189523E-02
  5.63712189E-04  7.90430564E-04  7.17279522E-03  1.85675417E-03  4.75886194E-02
  2.82163619E-03  4.12301460E-03  1.57968119E-02 -2.64952985E-17  3.51588450E-17
 -1.49324915E-18  1.58872616E-17  8.59253534E-18 -2.83240059E-17 -3.36609212E-18
  3.27598169E-15  1.44636258E-14 -4.79745805E-15 -1.62285147E-14  2.49367865E-01
  7.88699450E-02  2.36703278E-01  3.49627910E-01  1.10580141E-01  3.31871437E-01
  2.50477788E-01  7.92209912E-02  2.37756833E-01  1.16111199E-16  2.33563303E-17
  6.66320174E-17 -1.68396033E-16 -1.99808635E-18  9.35110311E-17 -5.87120566E-16
 -2.00426877E-16 -1.73666979E-16 -2.26569445E-16 -6.34946438E-03  7.53278716E-03
 -3.38660056E-03  4.94696428E-03  2.62699282E-03 -4.00209745E-03  1.77880858E-03
  5.13444366E-17 -4.96044157E-17 -1.73831084E-17 -2.23854168E-16 -3.51442748E-04
  2.40547368E-01 -7.97805562E-02 -4.11353826E-04  2.81553912E-01 -9.33808914E-02
 -9.01377280E-04  6.16953780E-01 -2.04620471E-01 -1.30519052E-17  6.18875110E-17
  1.30641240E-17  4.75172075E-18 -2.05404278E-16  4.11367681E-16  9.87915898E-17
 -6.44130142E-16 -2.71986914E-17 -6.63799116E-16  2.14104222E-03 -4.26256722E-03
 -1.59930486E-03  2.95926989E-03  7.24691638E-03 -3.28747757E-03 -3.68028866E-03
 -7.33853445E-16 -6.00965376E-15  7.21852811E-16  6.47347410E-15  1.69581422E-01
 -5.31335078E-02 -1.60950540E-01  1.65408008E-01 -5.18258871E-02 -1.56989532E-01
  5.08075240E-01 -1.59190903E-01 -4.82216645E-01 -1.02187259E-17  1.23461592E-16
 -4.56785435E-17 -4.49359376E-17  1.77458732E-17  1.53594112E-16 -3.78449546E-17
 -6.39099830E-17 -1.03504057E-16  2.36743864E-17 -3.61518915E-03 -7.21117394E-03
  1.68598789E-03  7.47510516E-03 -5.11050428E-03 -1.95276592E-03  3.20805354E-03
 -1.20596799E-16 -6.47695404E-15 -7.33923909E-16  8.40178952E-15 -1.58623569E-01
 -5.01693838E-02 -1.50567591E-01 -5.87880418E-01 -1.85934527E-01 -5.58023871E-01
  8.80357742E-01  2.78439110E-01  8.35647218E-01 -6.11009219E-17 -1.07847717E-16
 -1.22740511E-17  1.11421182E-16 -8.17583146E-18 -6.04221297E-16 -9.14760259E-16
 -4.11512795E-16  2.37073376E-17 -8.09588072E-16  2.46671887E-03 -2.67003966E-03
  1.63685182E-03 -1.51292169E-03 -6.97760458E-04  1.92698400E-03 -4.95592720E-04
  5.63625433E-17 -2.84874660E-15 -4.82712017E-16  3.48198871E-15  3.71043958E-04
 -2.53963550E-01  8.42302014E-02  1.35501603E-03 -9.27449899E-01  3.07600409E-01
 -1.56788762E-03  1.07315131E+00 -3.55924111E-01  1.30711504E-16 -2.09579481E-17
 -8.05483008E-17  8.67890298E-17 -2.18644033E-17  8.03409438E-16  6.51359956E-16
  2.37080675E-16  1.74981779E-16 -7.41926981E-17 -1.96469811E-03  3.02788196E-03
  1.46619980E-03 -2.72040856E-03 -5.15041687E-03  2.33227221E-03  3.37535744E-03
  3.14963920E-02 -1.40259349E+00 -2.36615429E-01  1.68812913E+00  1.30567074E-14
 -3.49597922E-15 -1.22017994E-14  5.31930996E-14 -1.35130820E-14 -4.74723379E-14
 -6.99321071E-14  1.65425486E-14  5.74372115E-14  2.47144242E-03 -1.41549611E-02
  3.61455968E-03  5.48801411E-03 -4.67689303E-03 -9.61219268E-03 -2.42604609E-03
 -1.41628457E-02 -2.13445206E-02 -8.73862547E-04 -1.39106926E-16 -3.76752700E-16
  1.25397439E-16  3.75059847E-16 -2.60575941E-16 -1.18341614E-16  1.47324090E-16
  3.83983635E-15 -1.07632879E-13 -2.12145094E-14  1.31130433E-13 -1.95240200E-01
  6.11729549E-02  1.85303409E-01 -7.07476793E-01  2.21667700E-01  6.71469615E-01
  7.72556899E-01 -2.42058696E-01 -7.33237454E-01  2.12595443E-16 -1.27031203E-15
  3.88753904E-16  4.81411828E-16 -3.90960828E-16 -1.00192325E-15  1.53313635E-16
 -8.07886396E-16 -1.74011307E-15 -5.51767229E-16  2.74394229E-03  5.96200006E-03
 -1.88722419E-03 -6.45255826E-03  4.48640840E-03  2.19007713E-03 -2.79933129E-03
  1.35974188E-11 -1.16173027E-10 -2.14693615E-11  5.21205722E-11 -2.33099263E-16
  4.01070273E-16 -9.43708433E-16 -5.67653526E-16 -3.83548998E-16  5.26779330E-16
  5.95983189E-16  1.40961803E-15 -2.72372242E-16  1.03882403E-02  6.34497255E-03
 -1.60851723E-02  6.05332127E-03 -1.90423437E-02 -3.71290060E-01 -2.26778084E-01
  5.74906278E-01 -2.16354064E-01  6.80599669E-01 -1.93311476E-16  1.00706573E-16
  1.72577184E-16  2.22405715E-16 -3.57564566E-16  3.80406788E-16 -2.74059435E-16
  8.65109431E-03 -5.97681787E-02 -1.14085389E-02  2.59499598E-02 -4.94635929E-17
  6.65654322E-16 -1.06373522E-15 -8.85551679E-16  8.31687211E-16 -9.84661083E-16
  9.87345326E-16 -5.66842545E-16  1.41828477E-15 -8.29696885E-03 -1.42326927E-02