test1 HF/cc-pVTZ sp formaldehyde                                        
SP        RB3LYP                                                      CC-pVTZ             
Number of atoms                            I                1
Info1-9                                    I   N=           9
          10          10           0           0           0         110
           1          18        -502
Full Title                                 C   N=           3
test1 HF/cc-pVTZ sp formaldehyde    
Route                                      C   N=           3
#P b3lyp/cc-pVTZ scf=tight          
Charge                                     I                0
Multiplicity                               I                1
Number of electrons                        I                4
Number of alpha electrons                  I                2
Number of beta electrons                   I                2
Number of basis functions                  I               30
Number of independent functions            I               30
Number of point charges in /Mol/           I                0
Number of translation vectors              I                0
Atomic numbers                             I   N=           1
           4
Nuclear charges                            R   N=           1
  4.00000000E+00
Current cartesian coordinates              R   N=           3
  0.00000000E+00  0.00000000E+00  0.00000000E+00
Number of symbols in /Mol/                 I                0
Int Atom Types                             I   N=           1
           0
Force Field                                I                0
Atom Types                                 C   N=           1
            
MM charges                                 R   N=           1
  0.00000000E+00
Integer atomic weights                     I   N=           1
           9
Real atomic weights                        R   N=           1
  9.01218250E+00
Atom fragment info                         I   N=           1
           0
Atom residue num                           I   N=           1
           0
Nuclear spins                              I   N=           1
           3
Nuclear ZEff                               R   N=           1
 -2.00000000E+00
Nuclear ZNuc                               R   N=           1
  4.00000000E+00
Nuclear QMom                               R   N=           1
  5.28800000E+00
Nuclear GFac                               R   N=           1
 -1.17790000E+00
MicOpt                                     I   N=           1
          -1
Number of residues                         I                0
Number of secondary structures             I                0
SymInf integers                            I   N=          26
           1           8           1           1           1           1
          -1          -1          -1           1          -1          -1
          -1           1          -1          -1          -1          -1
           1           1           1          -1           1           1
           1          -1
RotTr to input orientation                 R   N=          12
  0.00000000E+00  0.00000000E+00 -1.00000000E+00  0.00000000E+00  1.00000000E+00
  0.00000000E+00  1.00000000E+00  0.00000000E+00  0.00000000E+00  0.00000000E+00
  0.00000000E+00  0.00000000E+00
Number of contracted shells                I               10
Number of primitive shells                 I               25
Pure/Cartesian d shells                    I                0
Pure/Cartesian f shells                    I                0
Highest angular momentum                   I                3
Largest degree of contraction              I                8
Shell types                                I   N=          10
           0           0           0           0           1           1
           1          -2          -2          -3
Number of primitives per shell             I   N=          10
           8           7           1           1           3           1
           1           1           1           1
Shell to atom map                          I   N=          10
           1           1           1           1           1           1
           1           1           1           1
Primitive exponents                        R   N=          25
  6.86300000E+03  1.03000000E+03  2.34700000E+02  6.65600000E+01  2.16900000E+01
  7.73400000E+00  2.91600000E+00  1.13000000E+00  2.34700000E+02  6.65600000E+01
  2.16900000E+01  7.73400000E+00  2.91600000E+00  1.13000000E+00  1.10100000E-01
  2.57700000E-01  4.40900000E-02  7.43600000E+00  1.57700000E+00  4.35200000E-01
  1.43800000E-01  4.99400000E-02  3.48000000E-01  1.80300000E-01  3.25000000E-01
Contraction coefficients                   R   N=          25
  2.37848718E-04  1.84030029E-03  9.52586691E-03  3.82531149E-02  1.20888615E-01
  2.84286717E-01  4.30285259E-01  2.67251709E-01 -2.26548446E-05 -1.65951284E-04
 -2.30361069E-03 -1.23278348E-02 -6.75540023E-02 -1.61168135E-01  1.06300400E+00
  1.00000000E+00  1.00000000E+00  3.65487780E-02  2.13975121E-01  8.44884103E-01
  1.00000000E+00  1.00000000E+00  1.00000000E+00  1.00000000E+00  1.00000000E+00
Coordinates of each shell                  R   N=          30
  0.00000000E+00  0.00000000E+00  0.00000000E+00  0.00000000E+00  0.00000000E+00
  0.00000000E+00  0.00000000E+00  0.00000000E+00  0.00000000E+00  0.00000000E+00
  0.00000000E+00  0.00000000E+00  0.00000000E+00  0.00000000E+00  0.00000000E+00
  0.00000000E+00  0.00000000E+00  0.00000000E+00  0.00000000E+00  0.00000000E+00
  0.00000000E+00  0.00000000E+00  0.00000000E+00  0.00000000E+00  0.00000000E+00
  0.00000000E+00  0.00000000E+00  0.00000000E+00  0.00000000E+00  0.00000000E+00
Num ILSW                                   I              100
ILSW                                       I   N=         100
           0           0           0           0           2           0
           0           0           0           0         402          -1
           5           0           0           0           0           0
           0           0           0           0           0           0
           1           0           0           0           0           0
           0           0      100000           0          -1           0
           0           0           0           0           0           0
           0           0           0           1           0           0
           0 -2000000000           1           0           0           0
           0           0           4          52           0           0
           0           0           5           0           0           0
           0           0           0           1           0           1
           0           0           0           0           0           0
           0           0           0           0           0           0
           0           0           0           0           0           0
           0           0           0           0           0           0
           0           0           0           0
Num RLSW                                   I               52
RLSW                                       R   N=          52
  8.00000000E-01  7.20000000E-01  1.00000000E+00  8.10000000E-01  2.00000000E-01
  0.00000000E+00  0.00000000E+00  1.00000000E+00  0.00000000E+00  0.00000000E+00
  0.00000000E+00  0.00000000E+00  1.00000000E+00  0.00000000E+00  0.00000000E+00
  0.00000000E+00  0.00000000E+00  1.00000000E+00  0.00000000E+00  0.00000000E+00
  0.00000000E+00  0.00000000E+00  1.00000000E+00  0.00000000E+00  0.00000000E+00
  0.00000000E+00  0.00000000E+00  1.00000000E+00  0.00000000E+00  0.00000000E+00
  0.00000000E+00  0.00000000E+00  1.00000000E+00  0.00000000E+00  0.00000000E+00
  0.00000000E+00  0.00000000E+00  0.00000000E+00  1.00000000E+00  1.00000000E+00
  0.00000000E+00  1.00000000E+00  0.00000000E+00  0.00000000E+00  0.00000000E+00
  0.00000000E+00  0.00000000E+00  0.00000000E+00  0.00000000E+00  0.00000000E+00
  0.00000000E+00  0.00000000E+00
MxBond                                     I                1
NBond                                      I   N=           1
           0
IBond                                      I   N=           1
           0
RBond                                      R   N=           1
  0.00000000E+00
Virial Ratio                               R      2.010279333372448E+00
SCF Energy                                 R     -1.467244554341256E+01
Total Energy                               R     -1.467244554341256E+01
RMS Density                                R      3.467902500153801E-09
Job Status                                 I                1
Nuclear derivative order                   I                0
External E-field                           R   N=          35
  0.00000000E+00  0.00000000E+00  0.00000000E+00  0.00000000E+00  0.00000000E+00
  0.00000000E+00  0.00000000E+00  0.00000000E+00  0.00000000E+00  0.00000000E+00
  0.00000000E+00  0.00000000E+00  0.00000000E+00  0.00000000E+00  0.00000000E+00
  0.00000000E+00  0.00000000E+00  0.00000000E+00  0.00000000E+00  0.00000000E+00
  0.00000000E+00  0.00000000E+00  0.00000000E+00  0.00000000E+00  0.00000000E+00
  0.00000000E+00  0.00000000E+00  0.00000000E+00  0.00000000E+00  0.00000000E+00
  0.00000000E+00  0.00000000E+00  0.00000000E+00  0.00000000E+00  0.00000000E+00
IOpCl                                      I                0
IROHF                                      I                0
Alpha Orbital Energies                     R   N=          30
 -4.08605642E+00 -2.32308508E-01 -5.13487405E-02 -5.13487405E-02 -5.13487405E-02
  1.01563688E-01  1.35998184E-01  1.35998184E-01  1.35998184E-01  3.40494251E-01
  3.40494251E-01  3.40494251E-01  3.40494251E-01  3.40494251E-01  7.71963163E-01
  7.71963163E-01  7.71963163E-01  1.12156682E+00  1.12156682E+00  1.12156682E+00
  1.12156682E+00  1.12156682E+00  1.12156682E+00  1.12156682E+00  1.18436891E+00
  1.18436891E+00  1.18436891E+00  1.18436891E+00  1.18436891E+00  1.22517880E+00
Alpha MO coefficients                      R   N=         900
  9.84113795E-01 -1.57054338E-02  3.70894539E-02  4.02866549E-03  0.00000000E+00
  0.00000000E+00  0.00000000E+00  0.00000000E+00  0.00000000E+00  0.00000000E+00
  0.00000000E+00  0.00000000E+00  0.00000000E+00 -4.90065727E-16  0.00000000E+00
  0.00000000E+00 -1.84945611E-15  0.00000000E+00 -3.17663865E-15  0.00000000E+00
  0.00000000E+00 -2.69393230E-16  0.00000000E+00  0.00000000E+00  0.00000000E+00
  0.00000000E+00  0.00000000E+00  0.00000000E+00  0.00000000E+00  0.00000000E+00
 -2.02709305E-01  5.19670161E-01  2.64870625E-01  3.11814186E-01  0.00000000E+00
  0.00000000E+00  0.00000000E+00  0.00000000E+00  0.00000000E+00  0.00000000E+00
  0.00000000E+00  0.00000000E+00  0.00000000E+00 -9.10144539E-17  0.00000000E+00
  0.00000000E+00 -2.08720449E-16  0.00000000E+00  8.10435370E-16  0.00000000E+00
  0.00000000E+00  7.23113729E-16  0.00000000E+00  0.00000000E+00  0.00000000E+00
  0.00000000E+00  0.00000000E+00  0.00000000E+00  0.00000000E+00  0.00000000E+00
  0.00000000E+00  0.00000000E+00  0.00000000E+00  0.00000000E+00  2.72294183E-01
  0.00000000E+00  0.00000000E+00  3.59769628E-01  0.00000000E+00  0.00000000E+00
  5.54797276E-01  0.00000000E+00  0.00000000E+00  0.00000000E+00  0.00000000E+00
  0.00000000E+00  0.00000000E+00  0.00000000E+00  0.00000000E+00  0.00000000E+00
  0.00000000E+00  0.00000000E+00  0.00000000E+00  0.00000000E+00  6.32698764E-12
  0.00000000E+00  0.00000000E+00  0.00000000E+00 -8.16923859E-12  0.00000000E+00
  0.00000000E+00  0.00000000E+00  0.00000000E+00  0.00000000E+00  0.00000000E+00
  2.72294183E-01  0.00000000E+00  0.00000000E+00  3.59769628E-01  0.00000000E+00
  0.00000000E+00  5.54797276E-01  0.00000000E+00  0.00000000E+00  0.00000000E+00
  0.00000000E+00  0.00000000E+00  0.00000000E+00  0.00000000E+00  0.00000000E+00
  0.00000000E+00  0.00000000E+00  0.00000000E+00  0.00000000E+00  0.00000000E+00
  6.32734331E-12  0.00000000E+00  0.00000000E+00  0.00000000E+00  8.16894361E-12
  0.00000000E+00  0.00000000E+00  0.00000000E+00  0.00000000E+00  0.00000000E+00
  0.00000000E+00  2.72294183E-01  0.00000000E+00  0.00000000E+00  3.59769628E-01
  0.00000000E+00  0.00000000E+00  5.54797276E-01  0.00000000E+00  0.00000000E+00
  0.00000000E+00  0.00000000E+00  0.00000000E+00  0.00000000E+00  0.00000000E+00
  0.00000000E+00  0.00000000E+00  0.00000000E+00 -1.03329341E-11  0.00000000E+00
  0.00000000E+00  6.36235054E-16  0.00000000E+00  0.00000000E+00  0.00000000E+00
  5.71710008E-02 -1.18273175E+00 -4.90954189E-01  1.73644406E+00  0.00000000E+00
  0.00000000E+00  0.00000000E+00  0.00000000E+00  0.00000000E+00  0.00000000E+00
  0.00000000E+00  0.00000000E+00  0.00000000E+00 -1.09632675E-16  0.00000000E+00
  0.00000000E+00  2.07290780E-16  0.00000000E+00  2.40975017E-16  0.00000000E+00
  0.00000000E+00 -5.87362867E-16  0.00000000E+00  0.00000000E+00  0.00000000E+00
  0.00000000E+00  0.00000000E+00  0.00000000E+00  0.00000000E+00  0.00000000E+00
  0.00000000E+00  0.00000000E+00  0.00000000E+00  0.00000000E+00  0.00000000E+00
 -2.59006954E-01  0.00000000E+00  0.00000000E+00 -1.00266776E+00  0.00000000E+00
  0.00000000E+00  1.24582057E+00  0.00000000E+00  0.00000000E+00  0.00000000E+00
  0.00000000E+00  0.00000000E+00  0.00000000E+00  0.00000000E+00  0.00000000E+00
  0.00000000E+00  0.00000000E+00  0.00000000E+00  0.00000000E+00  0.00000000E+00
 -4.28422882E-12  0.00000000E+00  0.00000000E+00  0.00000000E+00 -5.53179027E-12
  0.00000000E+00  0.00000000E+00  0.00000000E+00  0.00000000E+00 -2.59006954E-01
  0.00000000E+00  0.00000000E+00 -1.00266776E+00  0.00000000E+00  0.00000000E+00
  1.24582057E+00  0.00000000E+00  0.00000000E+00  0.00000000E+00  0.00000000E+00
  0.00000000E+00  0.00000000E+00  0.00000000E+00  0.00000000E+00  0.00000000E+00
  0.00000000E+00  0.00000000E+00  0.00000000E+00  0.00000000E+00 -4.28418433E-12
  0.00000000E+00  0.00000000E+00  0.00000000E+00  5.53178456E-12  0.00000000E+00
  0.00000000E+00  0.00000000E+00  0.00000000E+00  0.00000000E+00  0.00000000E+00
  0.00000000E+00 -2.59006954E-01  0.00000000E+00  0.00000000E+00 -1.00266776E+00
  0.00000000E+00  0.00000000E+00  1.24582057E+00  0.00000000E+00  0.00000000E+00
  0.00000000E+00  0.00000000E+00  0.00000000E+00  0.00000000E+00  0.00000000E+00
  0.00000000E+00  0.00000000E+00  0.00000000E+00  6.99814762E-12  0.00000000E+00
  0.00000000E+00 -1.28680353E-16  0.00000000E+00  0.00000000E+00  0.00000000E+00
  0.00000000E+00  0.00000000E+00  0.00000000E+00  0.00000000E+00  0.00000000E+00
  0.00000000E+00  0.00000000E+00  0.00000000E+00  0.00000000E+00  0.00000000E+00
  0.00000000E+00  0.00000000E+00  0.00000000E+00  0.00000000E+00 -2.81965760E-01
  0.00000000E+00  0.00000000E+00  0.00000000E+00  0.00000000E+00  1.22172118E+00
  0.00000000E+00  0.00000000E+00  0.00000000E+00  0.00000000E+00  0.00000000E+00
  0.00000000E+00  0.00000000E+00  0.00000000E+00  0.00000000E+00  0.00000000E+00
  0.00000000E+00  0.00000000E+00  0.00000000E+00  0.00000000E+00  0.00000000E+00
  0.00000000E+00  0.00000000E+00  0.00000000E+00  0.00000000E+00  0.00000000E+00
  0.00000000E+00  0.00000000E+00  0.00000000E+00  0.00000000E+00  0.00000000E+00
 -2.81965760E-01  0.00000000E+00  0.00000000E+00  0.00000000E+00  0.00000000E+00
  1.22172118E+00  0.00000000E+00  0.00000000E+00  0.00000000E+00  0.00000000E+00
  0.00000000E+00  0.00000000E+00  0.00000000E+00  0.00000000E+00  0.00000000E+00
  0.00000000E+00  0.00000000E+00  0.00000000E+00  0.00000000E+00  0.00000000E+00
  0.00000000E+00  0.00000000E+00  0.00000000E+00  0.00000000E+00  0.00000000E+00
  0.00000000E+00  0.00000000E+00  0.00000000E+00  0.00000000E+00  0.00000000E+00
  0.00000000E+00  0.00000000E+00 -2.81965760E-01  0.00000000E+00  0.00000000E+00
  0.00000000E+00  0.00000000E+00  1.22172118E+00  0.00000000E+00  0.00000000E+00
  0.00000000E+00  0.00000000E+00  0.00000000E+00  0.00000000E+00  0.00000000E+00
 -3.99676210E-16 -1.57224032E-15  2.18826861E-16  1.99887683E-15  0.00000000E+00
  0.00000000E+00  0.00000000E+00  0.00000000E+00  0.00000000E+00  0.00000000E+00
  0.00000000E+00  0.00000000E+00  0.00000000E+00 -2.06847278E-02  0.00000000E+00
  0.00000000E+00 -2.81206031E-01  0.00000000E+00  8.96242512E-02  0.00000000E+00
  0.00000000E+00  1.21842938E+00  0.00000000E+00  0.00000000E+00  0.00000000E+00
  0.00000000E+00  0.00000000E+00  0.00000000E+00  0.00000000E+00  0.00000000E+00
 -1.75106078E-16  6.17785062E-16 -1.29215478E-16 -2.58402164E-16  0.00000000E+00
  0.00000000E+00  0.00000000E+00  0.00000000E+00  0.00000000E+00  0.00000000E+00
  0.00000000E+00  0.00000000E+00  0.00000000E+00 -2.81206031E-01  0.00000000E+00
  0.00000000E+00  2.06847278E-02  0.00000000E+00  1.21842938E+00  0.00000000E+00
  0.00000000E+00 -8.96242512E-02  0.00000000E+00  0.00000000E+00  0.00000000E+00
  0.00000000E+00  0.00000000E+00  0.00000000E+00  0.00000000E+00  0.00000000E+00
  0.00000000E+00  0.00000000E+00  0.00000000E+00  0.00000000E+00  0.00000000E+00
  0.00000000E+00 -1.34176037E+00  0.00000000E+00  0.00000000E+00  1.60635479E+00
  0.00000000E+00  0.00000000E+00 -7.12653886E-01  0.00000000E+00  0.00000000E+00
  0.00000000E+00  0.00000000E+00  0.00000000E+00  0.00000000E+00  0.00000000E+00
  0.00000000E+00  0.00000000E+00  0.00000000E+00 -1.74594490E-11  0.00000000E+00
  0.00000000E+00 -1.68067759E-15  0.00000000E+00  0.00000000E+00  0.00000000E+00
  0.00000000E+00  0.00000000E+00  0.00000000E+00  0.00000000E+00 -1.34176037E+00
  0.00000000E+00  0.00000000E+00  1.60635479E+00  0.00000000E+00  0.00000000E+00
 -7.12653886E-01  0.00000000E+00  0.00000000E+00  0.00000000E+00  0.00000000E+00
  0.00000000E+00  0.00000000E+00  0.00000000E+00  0.00000000E+00  0.00000000E+00
  0.00000000E+00  0.00000000E+00  0.00000000E+00  0.00000000E+00  1.06580421E-11
  0.00000000E+00  0.00000000E+00  0.00000000E+00 -1.37734329E-11  0.00000000E+00
  0.00000000E+00  0.00000000E+00  0.00000000E+00  0.00000000E+00  0.00000000E+00
 -1.34176037E+00  0.00000000E+00  0.00000000E+00  1.60635479E+00  0.00000000E+00
  0.00000000E+00 -7.12653886E-01  0.00000000E+00  0.00000000E+00  0.00000000E+00
  0.00000000E+00  0.00000000E+00  0.00000000E+00  0.00000000E+00  0.00000000E+00
  0.00000000E+00  0.00000000E+00  0.00000000E+00  0.00000000E+00  0.00000000E+00
  1.06602699E-11  0.00000000E+00  0.00000000E+00  0.00000000E+00  1.37717745E-11
  0.00000000E+00  0.00000000E+00  0.00000000E+00  0.00000000E+00 -1.44425985E-14
  0.00000000E+00  0.00000000E+00  2.22633034E-14  0.00000000E+00  0.00000000E+00
 -1.25188050E-14  0.00000000E+00  0.00000000E+00  0.00000000E+00  0.00000000E+00
  0.00000000E+00  0.00000000E+00  0.00000000E+00  0.00000000E+00  0.00000000E+00
  0.00000000E+00  0.00000000E+00  0.00000000E+00  0.00000000E+00  7.90581484E-01
  0.00000000E+00  0.00000000E+00  0.00000000E+00  6.12356855E-01  0.00000000E+00
  0.00000000E+00  0.00000000E+00  0.00000000E+00  0.00000000E+00  0.00000000E+00
  0.00000000E+00 -2.82084577E-15  0.00000000E+00  0.00000000E+00  2.80139126E-15
  0.00000000E+00  0.00000000E+00 -1.77083935E-15  0.00000000E+00  0.00000000E+00
  0.00000000E+00  0.00000000E+00  0.00000000E+00  0.00000000E+00  0.00000000E+00
  0.00000000E+00  0.00000000E+00  0.00000000E+00  5.45143614E-06  0.00000000E+00
  0.00000000E+00  1.00000000E+00  0.00000000E+00  0.00000000E+00  0.00000000E+00
  0.00000000E+00  0.00000000E+00  0.00000000E+00  0.00000000E+00  0.00000000E+00
 -1.19161874E-14  0.00000000E+00  0.00000000E+00  1.74388553E-14  0.00000000E+00
  0.00000000E+00 -9.87638403E-15  0.00000000E+00  0.00000000E+00  0.00000000E+00
  0.00000000E+00  0.00000000E+00  0.00000000E+00  0.00000000E+00  0.00000000E+00
  0.00000000E+00  0.00000000E+00  0.00000000E+00  0.00000000E+00  0.00000000E+00
  7.90561089E-01  0.00000000E+00  0.00000000E+00  0.00000000E+00 -6.12383185E-01
  0.00000000E+00  0.00000000E+00  0.00000000E+00  0.00000000E+00  0.00000000E+00
  0.00000000E+00  0.00000000E+00  0.00000000E+00  0.00000000E+00  0.00000000E+00
  0.00000000E+00  0.00000000E+00  0.00000000E+00  0.00000000E+00  0.00000000E+00
  0.00000000E+00  0.00000000E+00  0.00000000E+00  0.00000000E+00  0.00000000E+00
  0.00000000E+00  0.00000000E+00  0.00000000E+00  0.00000000E+00  0.00000000E+00
  0.00000000E+00  0.00000000E+00  1.00000000E+00  0.00000000E+00  0.00000000E+00
  0.00000000E+00  0.00000000E+00  0.00000000E+00  0.00000000E+00  0.00000000E+00
  1.87218529E-11  0.00000000E+00  0.00000000E+00 -3.86732953E-11  0.00000000E+00
  0.00000000E+00  1.53704673E-11  0.00000000E+00  0.00000000E+00  0.00000000E+00
  0.00000000E+00  0.00000000E+00  0.00000000E+00  0.00000000E+00  0.00000000E+00
  0.00000000E+00  0.00000000E+00  0.00000000E+00  0.00000000E+00  0.00000000E+00
  6.12383185E-01  0.00000000E+00  0.00000000E+00  0.00000000E+00  7.90561089E-01
  0.00000000E+00  0.00000000E+00  0.00000000E+00  0.00000000E+00  0.00000000E+00
  0.00000000E+00 -1.88055483E-11  0.00000000E+00  0.00000000E+00  3.87861690E-11
  0.00000000E+00  0.00000000E+00 -1.54294198E-11  0.00000000E+00  0.00000000E+00
  0.00000000E+00  0.00000000E+00  0.00000000E+00  0.00000000E+00  0.00000000E+00
  0.00000000E+00  0.00000000E+00  0.00000000E+00  1.00000000E+00  0.00000000E+00
  0.00000000E+00 -5.45143614E-06  0.00000000E+00  0.00000000E+00  0.00000000E+00
  0.00000000E+00  0.00000000E+00  0.00000000E+00  0.00000000E+00 -1.87219730E-11
  0.00000000E+00  0.00000000E+00  3.86732024E-11  0.00000000E+00  0.00000000E+00
 -1.53707198E-11  0.00000000E+00  0.00000000E+00  0.00000000E+00  0.00000000E+00
  0.00000000E+00  0.00000000E+00  0.00000000E+00  0.00000000E+00  0.00000000E+00
  0.00000000E+00  0.00000000E+00  0.00000000E+00  0.00000000E+00 -6.12356855E-01
  0.00000000E+00  0.00000000E+00  0.00000000E+00  7.90581484E-01  0.00000000E+00
  0.00000000E+00  0.00000000E+00  0.00000000E+00  0.00000000E+00  0.00000000E+00
  0.00000000E+00  0.00000000E+00  0.00000000E+00  0.00000000E+00  0.00000000E+00
  0.00000000E+00  0.00000000E+00  0.00000000E+00  0.00000000E+00  1.77242759E+00
  0.00000000E+00  0.00000000E+00  0.00000000E+00  0.00000000E+00 -1.31468689E+00
  0.00000000E+00  0.00000000E+00  0.00000000E+00  0.00000000E+00  0.00000000E+00
  0.00000000E+00  0.00000000E+00  0.00000000E+00  0.00000000E+00  0.00000000E+00
  0.00000000E+00  0.00000000E+00  0.00000000E+00  0.00000000E+00  0.00000000E+00
  0.00000000E+00  0.00000000E+00  0.00000000E+00  0.00000000E+00  0.00000000E+00
  0.00000000E+00  0.00000000E+00  0.00000000E+00  0.00000000E+00  0.00000000E+00
  1.77242759E+00  0.00000000E+00  0.00000000E+00  0.00000000E+00  0.00000000E+00
 -1.31468689E+00  0.00000000E+00  0.00000000E+00  0.00000000E+00  0.00000000E+00
  0.00000000E+00  0.00000000E+00  0.00000000E+00  0.00000000E+00  0.00000000E+00
  0.00000000E+00  0.00000000E+00  0.00000000E+00  0.00000000E+00  0.00000000E+00
  0.00000000E+00  0.00000000E+00  0.00000000E+00  0.00000000E+00  0.00000000E+00
  0.00000000E+00  0.00000000E+00  0.00000000E+00  0.00000000E+00  0.00000000E+00
  0.00000000E+00  0.00000000E+00  1.77242759E+00  0.00000000E+00  0.00000000E+00
  0.00000000E+00  0.00000000E+00 -1.31468689E+00  0.00000000E+00  0.00000000E+00
  0.00000000E+00  0.00000000E+00  0.00000000E+00  0.00000000E+00  0.00000000E+00
  1.46121599E-14  4.65287541E-14 -3.31860850E-14 -2.23502736E-14  0.00000000E+00
  0.00000000E+00  0.00000000E+00  0.00000000E+00  0.00000000E+00  0.00000000E+00
  0.00000000E+00  0.00000000E+00  0.00000000E+00 -9.02119443E-02  0.00000000E+00
  0.00000000E+00  1.77013033E+00  0.00000000E+00  6.69141355E-02  0.00000000E+00
  0.00000000E+00 -1.31298290E+00  0.00000000E+00  0.00000000E+00  0.00000000E+00
  0.00000000E+00  0.00000000E+00  0.00000000E+00  0.00000000E+00  0.00000000E+00
 -5.92221376E-15 -1.63352522E-14  1.22510494E-14  8.50117525E-15  0.00000000E+00
  0.00000000E+00  0.00000000E+00  0.00000000E+00  0.00000000E+00  0.00000000E+00
  0.00000000E+00  0.00000000E+00  0.00000000E+00  1.77013033E+00  0.00000000E+00
  0.00000000E+00  9.02119443E-02  0.00000000E+00 -1.31298290E+00  0.00000000E+00
  0.00000000E+00 -6.69141355E-02  0.00000000E+00  0.00000000E+00  0.00000000E+00
  0.00000000E+00  0.00000000E+00  0.00000000E+00  0.00000000E+00  0.00000000E+00
  1.08348869E+00  3.40197308E+00 -2.43141732E+00 -1.63710215E+00  0.00000000E+00
  0.00000000E+00  0.00000000E+00  0.00000000E+00  0.00000000E+00  0.00000000E+00
  0.00000000E+00  0.00000000E+00  0.00000000E+00  1.01488878E-14  0.00000000E+00
  0.00000000E+00 -2.39119352E-14  0.00000000E+00 -7.29454229E-15  0.00000000E+00
  0.00000000E+00  1.82084818E-14  0.00000000E+00  0.00000000E+00  0.00000000E+00
  0.00000000E+00  0.00000000E+00  0.00000000E+00  0.00000000E+00  0.00000000E+00
Orthonormal basis                          R   N=         900
  1.36126567E-01  3.64059011E-01  3.46350385E-01  3.40435496E-01  0.00000000E+00
  0.00000000E+00  0.00000000E+00  0.00000000E+00  0.00000000E+00  0.00000000E+00
  0.00000000E+00  0.00000000E+00  0.00000000E+00 -3.65707637E-18  0.00000000E+00
  0.00000000E+00 -1.94595467E-17  0.00000000E+00 -2.09248988E-18  0.00000000E+00
  0.00000000E+00 -1.78429350E-17  0.00000000E+00  0.00000000E+00  0.00000000E+00
  0.00000000E+00  0.00000000E+00  0.00000000E+00  0.00000000E+00  0.00000000E+00
  4.27610322E-28  1.38543835E-17  5.08650967E-18  2.56485096E-17  0.00000000E+00
  0.00000000E+00  0.00000000E+00  0.00000000E+00  0.00000000E+00  0.00000000E+00
  0.00000000E+00  0.00000000E+00  0.00000000E+00 -2.55563772E-01  0.00000000E+00
  0.00000000E+00  4.55909926E-01  0.00000000E+00 -2.55563772E-01  0.00000000E+00
  0.00000000E+00  4.55909926E-01  0.00000000E+00  0.00000000E+00  0.00000000E+00
  0.00000000E+00  0.00000000E+00  0.00000000E+00  0.00000000E+00  0.00000000E+00
  5.76131704E-15 -1.83645809E-15  1.29308781E-15 -1.62049355E-15  0.00000000E+00
  0.00000000E+00  0.00000000E+00  0.00000000E+00  0.00000000E+00  0.00000000E+00
  0.00000000E+00  0.00000000E+00  0.00000000E+00  4.55909926E-01  0.00000000E+00
  0.00000000E+00  2.55563772E-01  0.00000000E+00  4.55909926E-01  0.00000000E+00
  0.00000000E+00  2.55563772E-01  0.00000000E+00  0.00000000E+00  0.00000000E+00
  0.00000000E+00  0.00000000E+00  0.00000000E+00  0.00000000E+00  0.00000000E+00
  8.83453584E-01 -2.82975504E-01  1.96618108E-01 -2.50680318E-01  0.00000000E+00
  0.00000000E+00  0.00000000E+00  0.00000000E+00  0.00000000E+00  0.00000000E+00
  0.00000000E+00  0.00000000E+00  0.00000000E+00 -5.25034024E-15  0.00000000E+00
  0.00000000E+00 -2.94705032E-15  0.00000000E+00 -5.22214947E-15  0.00000000E+00
  0.00000000E+00 -2.90287505E-15  0.00000000E+00  0.00000000E+00  0.00000000E+00
  0.00000000E+00  0.00000000E+00  0.00000000E+00  0.00000000E+00  0.00000000E+00
  5.28147126E-01 -1.85560275E-01 -1.15641261E+00  1.16375640E+00  0.00000000E+00
  0.00000000E+00  0.00000000E+00  0.00000000E+00  0.00000000E+00  0.00000000E+00
  0.00000000E+00  0.00000000E+00  0.00000000E+00 -4.65350218E-17  0.00000000E+00
  0.00000000E+00  7.02452603E-17  0.00000000E+00  4.33072212E-17  0.00000000E+00
  0.00000000E+00 -1.18984271E-16  0.00000000E+00  0.00000000E+00  0.00000000E+00
  0.00000000E+00  0.00000000E+00  0.00000000E+00  0.00000000E+00  0.00000000E+00
  1.61175648E-19  3.56069339E-17  1.33014047E-16 -1.67984806E-16  0.00000000E+00
  0.00000000E+00  0.00000000E+00  0.00000000E+00  0.00000000E+00  0.00000000E+00
  0.00000000E+00  0.00000000E+00  0.00000000E+00 -5.03189728E-01  0.00000000E+00
  0.00000000E+00  1.64153515E+00  0.00000000E+00  5.03189728E-01  0.00000000E+00
  0.00000000E+00 -1.64153515E+00  0.00000000E+00  0.00000000E+00  0.00000000E+00
  0.00000000E+00  0.00000000E+00  0.00000000E+00  0.00000000E+00  0.00000000E+00
  5.69341398E-17 -7.61613570E-17  3.06750057E-17  3.74063975E-17  0.00000000E+00
  0.00000000E+00  0.00000000E+00  0.00000000E+00  0.00000000E+00  0.00000000E+00
  0.00000000E+00  0.00000000E+00  0.00000000E+00  1.64153515E+00  0.00000000E+00
  0.00000000E+00  5.03189728E-01  0.00000000E+00 -1.64153515E+00  0.00000000E+00
  0.00000000E+00 -5.03189728E-01  0.00000000E+00  0.00000000E+00  0.00000000E+00
  0.00000000E+00  0.00000000E+00  0.00000000E+00  0.00000000E+00  0.00000000E+00
  1.05300865E+00  3.60493166E+00 -2.17450015E+00 -2.06386042E+00  0.00000000E+00
  0.00000000E+00  0.00000000E+00  0.00000000E+00  0.00000000E+00  0.00000000E+00
  0.00000000E+00  0.00000000E+00  0.00000000E+00  1.23978466E-16  0.00000000E+00
  0.00000000E+00 -1.13202020E-18  0.00000000E+00 -1.07408822E-16  0.00000000E+00
  0.00000000E+00  4.12409401E-17  0.00000000E+00  0.00000000E+00  0.00000000E+00
  0.00000000E+00  0.00000000E+00  0.00000000E+00  0.00000000E+00  0.00000000E+00
  0.00000000E+00  0.00000000E+00  0.00000000E+00  0.00000000E+00  0.00000000E+00
  0.00000000E+00  0.00000000E+00  0.00000000E+00  0.00000000E+00  0.00000000E+00
  0.00000000E+00  0.00000000E+00  0.00000000E+00  0.00000000E+00  0.00000000E+00
  0.00000000E+00  0.00000000E+00  5.22653520E-01  0.00000000E+00  0.00000000E+00
  0.00000000E+00  0.00000000E+00  5.22653520E-01  0.00000000E+00  0.00000000E+00
  0.00000000E+00  0.00000000E+00  0.00000000E+00  0.00000000E+00  0.00000000E+00
  0.00000000E+00  0.00000000E+00  0.00000000E+00  0.00000000E+00  0.00000000E+00
  0.00000000E+00  0.00000000E+00  0.00000000E+00  0.00000000E+00  0.00000000E+00
  0.00000000E+00  0.00000000E+00  0.00000000E+00  0.00000000E+00  0.00000000E+00
  0.00000000E+00  0.00000000E+00  1.71692678E+00  0.00000000E+00  0.00000000E+00
  0.00000000E+00  0.00000000E+00 -1.71692678E+00  0.00000000E+00  0.00000000E+00
  0.00000000E+00  0.00000000E+00  0.00000000E+00  0.00000000E+00  0.00000000E+00
  0.00000000E+00  0.00000000E+00  0.00000000E+00  0.00000000E+00  0.00000000E+00
  0.00000000E+00  0.00000000E+00  0.00000000E+00  0.00000000E+00  0.00000000E+00
  0.00000000E+00  0.00000000E+00  0.00000000E+00  0.00000000E+00  5.22653520E-01
  0.00000000E+00  0.00000000E+00  0.00000000E+00  0.00000000E+00  5.22653520E-01
  0.00000000E+00  0.00000000E+00  0.00000000E+00  0.00000000E+00  0.00000000E+00