0006_hf_0.85/0006_q000_m01_k00_force_uccsd_augccpvqz stable-force       
Stability UHF                                                         CC-pVTZ             
Number of atoms                            I                1
Info1-9                                    I   N=           9
          12          10           0           0           0         111
           7           1           2
Full Title                                 C   N=           6
0006_hf_0.85/0006_q000_m01_k00_force_uccsd_augccpvqz stable-
force       
Route                                      C   N=          13
#p uhf/cc-pvtz 5d,7f stable=opt scf=(maxcycle=900,verytightl
ineq,xqc) integral=grid=ultrafine symmetry=None density=curr
ent iop(99/18=-1) output=wfn        
Charge                                     I                0
Multiplicity                               I                1
Number of electrons                        I                4
Number of alpha electrons                  I                2
Number of beta electrons                   I                2
Number of basis functions                  I               30
Number of independent functions            I               30
Number of point charges in /Mol/           I                0
Number of translation vectors              I                0
Atomic numbers                             I   N=           1
           4
Nuclear charges                            R   N=           1
  4.00000000E+00
Current cartesian coordinates              R   N=           3
  0.00000000E+00  0.00000000E+00  0.00000000E+00
Number of symbols in /Mol/                 I                0
Int Atom Types                             I   N=           1
           0
Force Field                                I                0
Atom Types                                 C   N=           1
            
MM charges                                 R   N=           1
  0.00000000E+00
Integer atomic weights                     I   N=           1
           9
Real atomic weights                        R   N=           1
  9.01218250E+00
Atom fragment info                         I   N=           1
           0
Atom residue num                           I   N=           1
           0
Nuclear spins                              I   N=           1
           3
Nuclear ZEff                               R   N=           1
 -2.00000000E+00
Nuclear ZNuc                               R   N=           1
  4.00000000E+00
Nuclear QMom                               R   N=           1
  5.28800000E+00
Nuclear GFac                               R   N=           1
 -1.17790000E+00
MicOpt                                     I   N=           1
          -1
Number of residues                         I                0
Number of secondary structures             I                0
Number of contracted shells                I               10
Number of primitive shells                 I               25
Pure/Cartesian d shells                    I                0
Pure/Cartesian f shells                    I                0
Highest angular momentum                   I                3
Largest degree of contraction              I                8
Shell types                                I   N=          10
           0           0           0           0           1           1
           1          -2          -2          -3
Number of primitives per shell             I   N=          10
           8           7           1           1           3           1
           1           1           1           1
Shell to atom map                          I   N=          10
           1           1           1           1           1           1
           1           1           1           1
Primitive exponents                        R   N=          25
  6.86300000E+03  1.03000000E+03  2.34700000E+02  6.65600000E+01  2.16900000E+01
  7.73400000E+00  2.91600000E+00  1.13000000E+00  2.34700000E+02  6.65600000E+01
  2.16900000E+01  7.73400000E+00  2.91600000E+00  1.13000000E+00  1.10100000E-01
  2.57700000E-01  4.40900000E-02  7.43600000E+00  1.57700000E+00  4.35200000E-01
  1.43800000E-01  4.99400000E-02  3.48000000E-01  1.80300000E-01  3.25000000E-01
Contraction coefficients                   R   N=          25
  2.37848718E-04  1.84030029E-03  9.52586691E-03  3.82531149E-02  1.20888615E-01
  2.84286717E-01  4.30285259E-01  2.67251709E-01 -2.26548446E-05 -1.65951284E-04
 -2.30361069E-03 -1.23278348E-02 -6.75540023E-02 -1.61168135E-01  1.06300400E+00
  1.00000000E+00  1.00000000E+00  3.65487780E-02  2.13975121E-01  8.44884103E-01
  1.00000000E+00  1.00000000E+00  1.00000000E+00  1.00000000E+00  1.00000000E+00
Coordinates of each shell                  R   N=          30
  0.00000000E+00  0.00000000E+00  0.00000000E+00  0.00000000E+00  0.00000000E+00
  0.00000000E+00  0.00000000E+00  0.00000000E+00  0.00000000E+00  0.00000000E+00
  0.00000000E+00  0.00000000E+00  0.00000000E+00  0.00000000E+00  0.00000000E+00
  0.00000000E+00  0.00000000E+00  0.00000000E+00  0.00000000E+00  0.00000000E+00
  0.00000000E+00  0.00000000E+00  0.00000000E+00  0.00000000E+00  0.00000000E+00
  0.00000000E+00  0.00000000E+00  0.00000000E+00  0.00000000E+00  0.00000000E+00
Num ILSW                                   I              100
ILSW                                       I   N=         100
           1           0           0           0           2           1
           0           0           0           0           0          -1
           5           0           0           0           0           0
           0           0           0           0           0           0
           1           1           0           0           0           0
           0           0      100000           0          -1           0
           0           0           0           0           0           0
           0           0           0           1           0           0
           0 -2000000000           1           0           0           0
           0           0           4          52           0           0
           0           0           0           0           0           0
           0           0           0           1           0           1
           0           0           0           0           0           0
           0           0           0           0           0           0
           0           0           0           0           0           0
           0           0           0           0           0           0
           0           0           0           0
Num RLSW                                   I               52
RLSW                                       R   N=          52
  1.00000000E+00  1.00000000E+00  1.00000000E+00  1.00000000E+00  1.00000000E+00
  0.00000000E+00  0.00000000E+00  1.00000000E+00  0.00000000E+00  0.00000000E+00
  0.00000000E+00  0.00000000E+00  1.00000000E+00  0.00000000E+00  0.00000000E+00
  0.00000000E+00  0.00000000E+00  1.00000000E+00  0.00000000E+00  0.00000000E+00
  0.00000000E+00  0.00000000E+00  1.00000000E+00  0.00000000E+00  0.00000000E+00
  0.00000000E+00  0.00000000E+00  1.00000000E+00  0.00000000E+00  0.00000000E+00
  0.00000000E+00  0.00000000E+00  1.00000000E+00  0.00000000E+00  0.00000000E+00
  0.00000000E+00  0.00000000E+00  0.00000000E+00  1.00000000E+00  1.00000000E+00
  0.00000000E+00  1.00000000E+00  0.00000000E+00  0.00000000E+00  0.00000000E+00
  0.00000000E+00  0.00000000E+00  0.00000000E+00  0.00000000E+00  0.00000000E+00
  0.00000000E+00  0.00000000E+00
MxBond                                     I                1
NBond                                      I   N=           1
           0
IBond                                      I   N=           1
           0
RBond                                      R   N=           1
  0.00000000E+00
Virial Ratio                               R      2.000035392619127E+00
SCF Energy                                 R     -1.457318298058645E+01
Total Energy                               R     -1.457318298058645E+01
S**2                                       R      1.274135500544453E-01
S**2 after annihilation                    R      4.477067818268741E-08
RMS Density                                R      6.483461756904430E-09
Job Status                                 I                1
Nuclear derivative order                   I                0
External E-field                           R   N=          35
  0.00000000E+00  0.00000000E+00  0.00000000E+00  0.00000000E+00  0.00000000E+00
  0.00000000E+00  0.00000000E+00  0.00000000E+00  0.00000000E+00  0.00000000E+00
  0.00000000E+00  0.00000000E+00  0.00000000E+00  0.00000000E+00  0.00000000E+00
  0.00000000E+00  0.00000000E+00  0.00000000E+00  0.00000000E+00  0.00000000E+00
  0.00000000E+00  0.00000000E+00  0.00000000E+00  0.00000000E+00  0.00000000E+00
  0.00000000E+00  0.00000000E+00  0.00000000E+00  0.00000000E+00  0.00000000E+00
  0.00000000E+00  0.00000000E+00  0.00000000E+00  0.00000000E+00  0.00000000E+00
IOpCl                                      I                1
IROHF                                      I                0
Alpha Orbital Energies                     R   N=          30
 -4.73118220E+00 -3.13808157E-01  5.05543042E-02  5.05543042E-02  5.37738382E-02
  1.84374750E-01  2.53188050E-01  2.53188050E-01  2.56948403E-01  4.72122800E-01
  4.72122800E-01  4.73325588E-01  4.73325588E-01  4.73738535E-01  1.00145381E+00
  1.00145381E+00  1.00206060E+00  1.30076902E+00  1.30076902E+00  1.30203934E+00
  1.30203934E+00  1.30280141E+00  1.30280141E+00  1.30305541E+00  1.38172321E+00
  1.38172321E+00  1.38339954E+00  1.38339954E+00  1.38395750E+00  1.46699346E+00
Beta Orbital Energies                      R   N=          30
 -4.73118220E+00 -3.13808157E-01  5.05543042E-02  5.05543042E-02  5.37738382E-02
  1.84374750E-01  2.53188050E-01  2.53188050E-01  2.56948403E-01  4.72122800E-01
  4.72122800E-01  4.73325588E-01  4.73325588E-01  4.73738535E-01  1.00145381E+00
  1.00145381E+00  1.00206060E+00  1.30076902E+00  1.30076902E+00  1.30203934E+00
  1.30203934E+00  1.30280141E+00  1.30280141E+00  1.30305541E+00  1.38172321E+00
  1.38172321E+00  1.38339954E+00  1.38339954E+00  1.38395750E+00  1.46699346E+00
Alpha MO coefficients                      R   N=         900
  9.92158280E-01 -6.87239773E-03  1.83524733E-02  1.91809130E-03 -3.13154821E-05
 -2.01136232E-05  4.67549778E-05 -2.26963075E-04 -1.45776224E-04  3.38862647E-04
  6.38633670E-05  4.10189100E-05 -9.53497492E-05  9.56383894E-08 -1.62426298E-07
 -1.04331647E-07  3.19539564E-08  6.98833197E-08  1.41099836E-05 -2.39602901E-05
 -1.53894519E-05  4.71383362E-06  1.03075223E-05  3.90063594E-08 -1.08818416E-06
 -6.98931350E-07  4.02214401E-07  8.79508732E-07  4.44844289E-08 -3.11129047E-07
 -1.78156696E-01  5.37970306E-01  2.25401616E-01  3.07430997E-01 -2.92963050E-02
 -1.88167324E-02  4.37402699E-02 -5.62996315E-02 -3.61607070E-02  8.40570536E-02
 -2.42964051E-02 -1.56053452E-02  3.62752681E-02  3.75610156E-04 -6.37827811E-04
 -4.09670610E-04  1.25483174E-04  2.74388682E-04  1.77959640E-03 -3.02195268E-03
 -1.94097090E-03  5.94524422E-04  1.30002115E-03 -9.87236626E-07  2.75392221E-05
  1.76881745E-05 -1.01790420E-05 -2.22580738E-05 -1.12576411E-06  7.87385682E-06
 -3.61339504E-16 -1.58113438E-16  1.24674453E-17  2.04403084E-15  1.32297652E-01
 -9.86936134E-02  4.61529168E-02  9.78370779E-02 -7.29861386E-02  3.41311162E-02
  6.45985416E-01 -4.81902997E-01  2.25356314E-01 -8.08325198E-05 -1.02518392E-04
  1.19873028E-04  1.32532087E-04 -9.29213471E-06  8.70244847E-03  1.10371547E-02
 -1.29055590E-02 -1.42684363E-02  1.00039344E-03 -1.04275962E-04 -3.73286285E-05
  1.45434878E-04  2.16592576E-04 -3.89696767E-05 -9.73540735E-05 -5.33034674E-05
 -1.20575843E-10 -6.53423391E-12 -3.10185496E-12  1.25665389E-10  6.16820696E-02
  1.27692220E-01  9.62455661E-02  4.56152726E-02  9.44312578E-02  7.11757528E-02
  3.01182348E-01  6.23497928E-01  4.69949627E-01 -1.68565113E-04  2.81224848E-06
 -8.72523796E-05 -1.37710740E-05  1.13312980E-04  1.81477605E-02 -3.02767359E-04
  9.39361210E-03  1.48259714E-03 -1.21993026E-02 -2.17453189E-04  1.19735864E-04
 -4.33282045E-06 -4.55780808E-05  1.46136970E-04  6.08379959E-05 -7.34321748E-05
  2.57386356E-02  2.31927275E-04 -3.15392170E-03 -1.75806766E-01 -8.75161639E-02
 -5.62107827E-02  1.30664281E-01 -5.89409608E-02 -3.78572071E-02  8.80006384E-02
 -4.37587391E-01 -2.81058134E-01  6.53331218E-01 -1.86570804E-04  3.16817977E-04
  2.03489112E-04 -6.23292439E-05 -1.36292691E-04  1.14916081E-02 -1.95140287E-02
 -1.25336712E-02  3.83909608E-03  8.39478712E-03 -8.80540130E-06  2.45629346E-04
  1.57765345E-04 -9.07894721E-05 -1.98525453E-04 -1.00409816E-05  7.02289444E-05
  1.48840787E-02 -1.27724060E+00 -3.98818236E-01  1.75296761E+00  2.04905807E-02
  1.31609011E-02 -3.05930571E-02  1.07792561E-01  6.92341158E-02 -1.60937556E-01
 -1.40410104E-01 -9.01840471E-02  2.09636534E-01  2.11679062E-04 -3.59454591E-04
 -2.30874196E-04  7.07173661E-05  1.54634639E-04 -1.99720219E-03  3.39147147E-03
  2.17830922E-03 -6.67221773E-04 -1.45898531E-03  1.43421897E-06 -4.00079745E-05
 -2.56967337E-05  1.47877399E-05  3.23357180E-05  1.63546963E-06 -1.14388523E-05
  6.40272937E-11  1.39271624E-10  4.05460384E-11 -1.38234650E-10  7.08203550E-02
  1.46613293E-01  1.10505898E-01  4.31951725E-01  8.94232524E-01  6.74004152E-01
 -4.05489363E-01 -8.39449772E-01 -6.32713099E-01  7.63149751E-04 -1.27355937E-05
  3.95025874E-04  6.23510323E-05 -5.13007377E-04  2.55148034E-02 -4.25796068E-04
  1.32071163E-02  2.08461619E-03 -1.71516564E-02 -3.02008926E-04  1.66295653E-04
 -6.01919481E-06 -6.33034697E-05  2.02962867E-04  8.44959413E-05 -1.01985767E-04
  2.10924643E-15 -3.99377202E-14 -1.07757487E-14  4.18129423E-14  1.51900787E-01
 -1.13315953E-01  5.29922611E-02  9.26482319E-01 -6.91143406E-01  3.23213553E-01
 -8.69723870E-01  6.48802363E-01 -3.03412744E-01  3.65962646E-04  4.64136120E-04
 -5.42703620E-04 -6.00018116E-04  4.20647599E-05  1.22354295E-02  1.55177170E-02
 -1.81445072E-02 -2.00607341E-02  1.40637415E-03 -1.44826079E-04 -5.18426167E-05
  2.01987303E-04  3.00814291E-04 -5.41215058E-05 -1.35209635E-04 -7.40313495E-05
  1.22721664E-02 -3.13378932E-01 -8.41053200E-02  3.23121214E-01 -1.00629673E-01
 -6.46334623E-02  1.50243147E-01 -6.16740899E-01 -3.96126694E-01  9.20812827E-01
  5.73482094E-01  3.68341984E-01 -8.56226123E-01  4.98706267E-04 -8.46858712E-04
 -5.43929133E-04  1.66606907E-04  3.64312195E-04  1.63313383E-02 -2.77324289E-02
 -1.78122699E-02  5.45594457E-03  1.19302806E-02 -1.22626255E-05  3.42069680E-04
  2.19708036E-04 -1.26435730E-04 -2.76471600E-04 -1.39833267E-05  9.78026160E-05
  3.68820715E-16  4.35431318E-16 -9.83896433E-16  3.16979158E-16  1.10075340E-11
 -8.20966545E-12  3.84102744E-12  2.56449252E-11 -1.91273818E-11  8.94873414E-12
 -1.08285396E-11  8.07811292E-12 -3.77893540E-12 -9.01776112E-02 -1.82612209E-01
  4.22639893E-02 -2.43364066E-01 -1.26649208E-01  3.31940186E-01  6.72188250E-01
 -1.55572057E-01  8.95813409E-01  4.66190678E-01  2.85133658E-03  3.30320259E-03
 -1.44570911E-03  1.45467046E-03  1.08031077E-03 -1.87934454E-03 -3.28220866E-03
 -1.60876542E-15  4.93419159E-15  3.38733678E-15  1.01700870E-16  5.13157980E-12
  1.06274443E-11  7.99782013E-12  1.19539657E-11  2.47594058E-11  1.86278284E-11
 -5.04740332E-12 -1.04558095E-11 -7.86537343E-12 -7.24082031E-02  1.98031820E-03
 -1.97437619E-01  1.18745500E-01 -2.45362138E-01  2.66531704E-01 -7.28947221E-03
  7.26759994E-01 -4.37097443E-01  9.03168234E-01  2.28948356E-03 -6.70303468E-04
  4.01223742E-03 -4.59325259E-04  1.61165676E-03  3.20541528E-03 -1.96140623E-03
 -1.71559333E-11  2.04416977E-11  7.10070810E-12  4.17033368E-12 -5.45418508E-03
 -1.12910330E-02 -8.51041420E-03 -1.37960749E-02 -2.85600754E-02 -2.15266460E-02
  5.88007936E-03  1.21727021E-02  9.17495651E-03 -2.62009376E-01  4.37100603E-03
 -1.35620500E-01 -2.14047958E-02  1.76128029E-01  9.63756087E-01 -1.60779882E-02
  4.98856509E-01  7.87338322E-02 -6.47856432E-01  5.65676953E-03 -3.11477370E-03
  1.12707694E-04  1.18564782E-03 -3.80156456E-03 -1.58261909E-03  1.91024574E-03
 -3.89207803E-16  2.18144394E-15  7.36712673E-16 -6.23827568E-16  1.16982677E-02
 -8.72688974E-03  4.08100975E-03  2.95901540E-02 -2.20742095E-02  1.03227000E-02
 -1.26117360E-02  9.40833571E-03 -4.39967857E-03  1.25641689E-01  1.59349484E-01
 -1.86324841E-01 -2.06001297E-01  1.44434662E-02 -4.62151182E-01 -5.86139463E-01
  6.85363639E-01  7.57740075E-01 -5.31277874E-02 -2.71259789E-03 -9.71060559E-04
  3.78330203E-03  5.63437977E-03 -1.01375125E-03 -2.53254353E-03 -1.38661883E-03
  9.65918974E-04 -2.11586020E-03 -2.13405408E-03  9.30549336E-04 -9.29603248E-03
 -5.97075144E-03  1.38792579E-02 -2.34373410E-02 -1.50535767E-02  3.49926595E-02
  1.00211126E-02  6.43646337E-03 -1.49618244E-02  1.43984830E-01 -2.44502256E-01
 -1.57041426E-01  4.81021971E-02  1.05183016E-01 -5.29467335E-01  8.99094425E-01
  5.77479624E-01 -1.76883510E-01 -3.86783602E-01 -2.01657617E-04  5.62530101E-03
  3.61307625E-03 -2.07922269E-03 -4.54654728E-03 -2.29954384E-04  1.60835405E-03
 -1.47330724E-11 -7.62739293E-11  4.01647645E-11  4.15315809E-11 -1.15965645E+00
  1.54846306E-01 -7.10099585E-01  1.27300879E+00 -1.69981987E-01  7.79509320E-01
 -5.34387956E-01  7.13556162E-02 -3.27225072E-01 -1.00477402E-02 -5.58823078E-03
  3.76057097E-03  6.88944937E-03  3.22822939E-03  4.87876650E-03  2.71341344E-03
 -1.82597752E-03 -3.34523130E-03 -1.56749450E-03 -7.97894211E-04  1.16142387E-04
  4.87302051E-04  6.46166809E-04  1.64230209E-04 -2.08385561E-04 -3.31152755E-04
 -2.45067632E-11 -1.27096009E-10  6.69242683E-11  6.92057026E-11  1.17852419E-01
 -1.27940010E+00 -4.71453165E-01 -1.29372078E-01  1.40445695E+00  5.17536053E-01
  5.43082508E-02 -5.89567713E-01 -2.17253043E-01 -6.67095011E-03  3.54241604E-03
 -8.79501612E-03 -5.14117395E-03  6.58627453E-03  3.23913710E-03 -1.72005052E-03
  4.27049559E-03  2.49634115E-03 -3.19802215E-03 -5.29742250E-04  4.84353906E-04
 -3.10517565E-04 -5.95911854E-04  5.77751332E-04  4.05499247E-04 -1.42103545E-04
  2.29830818E-02  9.43042599E-02 -5.00082444E-02 -5.12078605E-02  7.16680133E-01
  4.60316694E-01 -1.07002513E+00 -7.87891023E-01 -5.06054757E-01  1.17634515E+00
  3.30727945E-01  2.12423349E-01 -4.93786832E-01 -6.93389602E-03  1.17745267E-02
  7.56266421E-03 -2.31646370E-03 -5.06531206E-03  3.36255863E-03 -5.70999855E-03
 -3.66747666E-03  1.12335763E-03  2.45639806E-03 -3.54639372E-05  9.89277373E-04
  6.35403256E-04 -3.65656514E-04 -7.99565453E-04 -4.04402658E-05  2.82848556E-04
  2.50610643E-16  7.50223904E-16 -5.40920704E-16 -4.50090038E-16  8.58271823E-16
  9.70426810E-16 -1.43694127E-15 -1.97654216E-15 -1.41704158E-15  2.72837027E-15
  4.15660548E-16  3.93308013E-16 -1.78545263E-15  8.48733334E-12  2.18001258E-12
  1.92942046E-11 -8.69585218E-12  2.64905413E-11 -6.83542982E-12 -1.75548772E-12
 -1.55408418E-11  7.00452890E-12 -2.13357035E-11 -6.73905216E-02  1.02666996E-01
 -3.51703951E-01  4.17576385E-01 -4.29533270E-01  6.92082483E-01 -1.52889849E-01
  1.64414863E-16  6.02016639E-16 -3.52161491E-16 -3.50374710E-16  1.13399393E-15
  1.05875284E-15 -1.41713436E-15 -3.68955718E-16 -3.27506190E-15  8.37514552E-16
 -1.27941575E-16  2.07869688E-15 -1.65736863E-16 -8.08795832E-12 -1.84582770E-11
  6.91566014E-12 -2.61601736E-11 -9.46371312E-12  6.51421641E-12  1.48668689E-11
 -5.56821693E-12  2.10682943E-11  7.62298317E-12  1.78694834E-01  3.02945814E-01
  3.70738790E-02  4.30765756E-01  4.35596083E-01  1.54131079E-01  6.89824647E-01
  6.92256483E-16  2.72187521E-15 -1.63079014E-15 -1.43104144E-15  1.36390783E-13
  2.92644566E-13  2.08963708E-13  4.41389161E-13  8.99745916E-13  6.92423879E-13
 -7.38231549E-14 -1.47669461E-13 -1.17266004E-13  1.82775975E-02 -4.96843245E-04
  4.98333444E-02 -2.99678410E-02  6.19324550E-02 -1.45187884E-02  3.94666855E-04
 -3.95850592E-02  2.38049197E-02 -4.91959737E-02  3.67533625E-01 -1.07561456E-01
  6.44022188E-01 -7.37148986E-02  2.58711577E-01  5.14507995E-01 -3.14875725E-01
  4.55289929E-16  1.34367839E-15 -1.02951200E-15 -6.88238504E-16  2.97189034E-13
 -2.13120145E-13  9.95314326E-14  9.40186323E-13 -7.11946073E-13  3.32461787E-13
 -1.56824645E-13  1.20710151E-13 -5.66840788E-14  2.27599983E-02  4.60920781E-02
 -1.06708387E-02  6.14280039E-02  3.19627356E-02 -1.80793782E-02 -3.66131887E-02
  8.47636833E-03 -4.87952636E-02 -2.53895619E-02  4.57667627E-01  5.30231252E-01
 -2.32104553E-01  2.33505931E-01  1.73392759E-01 -3.01702526E-01 -5.26833876E-01
  5.24939875E-12  2.58048082E-12 -4.98102210E-13 -2.18890778E-13 -8.15983946E-04
 -1.68921952E-03 -1.27321816E-03  1.05335505E-03  2.18061631E-03  1.64359946E-03
 -4.28884633E-04 -8.87860964E-04 -6.69208882E-04  8.34525002E-02 -1.39223453E-03
  4.31964728E-02  6.81766921E-03 -5.60984836E-02 -6.63777258E-02  1.10737679E-03
 -3.43582711E-02 -5.42274199E-03  4.46204698E-02  7.07290051E-01 -3.89453620E-01
  1.40925771E-02  1.48247019E-01 -4.75326037E-01 -1.97881841E-01  2.38846151E-01
 -1.75874851E-15 -5.25150960E-15  3.94654013E-15  2.60291805E-15  1.75014446E-03
 -1.30560387E-03  6.10548749E-04 -2.25926442E-03  1.68540623E-03 -7.88158406E-04
  9.19883372E-04 -6.86230948E-04  3.20907020E-04 -4.00181377E-02 -5.07543516E-02
  5.93462417E-02  6.56134028E-02 -4.60035411E-03  3.18302383E-02  4.03697724E-02
 -4.72037213E-02 -5.21885917E-02  3.65910000E-03 -3.39168156E-01 -1.21415674E-01
  4.73042521E-01  7.04490663E-01 -1.26753429E-01 -3.16654708E-01 -1.73375043E-01
 -4.51630793E-04 -1.39033379E-03  1.00114972E-03  7.39685115E-04 -1.45250775E-03
 -9.32931633E-04  2.16863804E-03  1.87559783E-03  1.20467828E-03 -2.80032432E-03
 -7.63750011E-04 -4.90549220E-04  1.14030188E-03 -4.86032164E-02  8.25336674E-02
  5.30105736E-02 -1.62372765E-02 -3.55053577E-02  3.86755545E-02 -6.56753932E-02
 -4.21826677E-02  1.29206608E-02  2.82530560E-02 -2.36542587E-02  6.59842802E-01
  4.23810628E-01 -2.43890971E-01 -5.33305950E-01 -2.69734447E-02  1.88658499E-01
 -1.32629663E-14 -4.01347885E-14  3.00832384E-14  1.82733859E-14  3.59066151E-12
 -2.66948577E-12  1.25648209E-12 -1.11191823E-12  8.29244244E-13 -3.89364331E-13
  3.36736605E-13 -2.51883681E-13  1.18761509E-13  4.60741812E-01  9.33121682E-01
 -2.16103974E-01  1.24363799E+00  6.46982104E-01 -3.32332436E-01 -6.73059388E-01
  1.55875499E-01 -8.97034377E-01 -4.66667303E-01 -2.20474606E-02 -2.55450390E-02
  1.11843031E-02 -1.12497494E-02 -8.35250656E-03  1.45368156E-02  2.53798345E-02
  7.41131007E-15  2.15298290E-14 -1.62261249E-14 -1.06690609E-14  1.65641493E-12
  3.45650235E-12  2.59694783E-12 -5.12323986E-13 -1.07429722E-12 -8.06353908E-13
  1.55942129E-13  3.26419010E-13  2.44263964E-13  3.70059394E-01 -9.98824859E-03
  1.00884554E+00 -6.06596803E-01  1.25385350E+00 -2.66923333E-01  7.20450999E-03
 -7.27678901E-01  4.37537441E-01 -9.04402808E-01 -1.77081170E-02  5.18000525E-03
 -3.10258490E-02  3.55047437E-03 -1.24644288E-02 -2.47860653E-02  1.51714980E-02
 -8.07971792E-15 -2.37819753E-14  1.83775461E-14  1.02966730E-14  1.08400274E-02
 -8.08663691E-03  3.78161054E-03 -2.97494233E-03  2.21930053E-03 -1.03782702E-03
  8.52488774E-04 -6.35954776E-04  2.97395976E-04 -6.41500534E-01 -8.13604742E-01
  9.51334882E-01  1.05179899E+00 -7.37448459E-02  4.62718524E-01  5.86858413E-01
 -6.86204062E-01 -7.58669480E-01  5.31926388E-02  2.06300288E-02  7.38515499E-03
 -2.87729892E-02 -4.28509098E-02  7.70982620E-03  1.92606422E-02  1.05456016E-02
  8.66468923E-12  7.16035004E-12 -3.86461226E-12 -3.43722425E-12 -5.05403384E-03
 -1.04626710E-02 -7.88604634E-03  1.38703148E-03  2.87138045E-03  2.16425035E-03
 -3.97462752E-04 -8.22812454E-04 -6.20179796E-04  1.33776413E+00 -2.23178281E-02
  6.92450043E-01  1.09288870E-01 -8.99272488E-01 -9.64938004E-01  1.60979951E-02
 -4.99468738E-01 -7.88307756E-02  6.48651117E-01 -4.30211841E-02  2.36886626E-02
 -8.57185055E-04 -9.01717887E-03  2.89118846E-02  1.20362366E-02 -1.45279074E-02
 -7.55782491E-03 -2.46701190E-02  1.68726053E-02  1.24456786E-02 -8.42371396E-03
 -5.41046973E-03  1.25768599E-02  2.21536290E-03  1.42290609E-03 -3.30760385E-03
 -6.22765626E-04 -3.99996318E-04  9.29807928E-04 -7.34914580E-01  1.24796670E+00
  8.01556901E-01 -2.45518962E-01 -5.36865809E-01  5.30097390E-01 -9.00164330E-01
 -5.78166814E-01  1.77093998E-01  3.87243867E-01  1.52516962E-03 -4.25450749E-02
 -2.73262887E-02  1.57255025E-02  3.43862834E-02  1.73918277E-03 -1.21642457E-02
  1.08122538E+00  3.34874027E+00 -2.45036423E+00 -1.57704753E+00 -1.71403815E-02
 -1.10091007E-02  2.55911083E-02  1.46360175E-02  9.40057202E-03 -2.18520171E-02
 -5.26522852E-03 -3.38180519E-03  7.86114553E-03 -5.08096471E-03  8.62804323E-03
  5.54170843E-03 -1.69743970E-03 -3.71171875E-03  3.97194330E-03 -6.74480151E-03
 -4.33212056E-03  1.32693979E-03  2.90156245E-03  1.84515015E-06 -5.14710400E-05
 -3.30593496E-05  1.90247160E-05  4.16005329E-05  2.10406376E-06 -1.47163070E-05
Beta MO coefficients                       R   N=         900
  9.92158280E-01 -6.87239772E-03  1.83524734E-02  1.91809129E-03  3.13154832E-05
  2.01136359E-05 -4.67549536E-05  2.26963065E-04  1.45776155E-04 -3.38862764E-04
 -6.38633397E-05 -4.10187799E-05  9.53499490E-05  9.56551337E-08 -1.62434158E-07
 -1.04330231E-07  3.19564633E-08  6.98783848E-08  1.41099585E-05 -2.39602781E-05
 -1.53894538E-05  4.71382982E-06  1.03075295E-05 -3.90097141E-08  1.08818741E-06
  6.98932203E-07 -4.02215622E-07 -8.79507668E-07 -4.44835631E-08  3.11128341E-07
 -1.78156696E-01  5.37970306E-01  2.25401616E-01  3.07430997E-01  2.92963050E-02
  1.88167324E-02 -4.37402699E-02  5.62996314E-02  3.61607069E-02 -8.40570536E-02
  2.42964051E-02  1.56053452E-02 -3.62752681E-02  3.75610140E-04 -6.37827806E-04
 -4.09670613E-04  1.25483172E-04  2.74388689E-04  1.77959647E-03 -3.02195270E-03
 -1.94097088E-03  5.94524432E-04  1.30002111E-03  9.87233365E-07 -2.75392189E-05
 -1.76881736E-05  1.01790409E-05  2.22580748E-05  1.12576495E-06 -7.87385752E-06
 -3.46688875E-11 -7.08770362E-12 -1.68196167E-12  1.26415597E-10  6.16819733E-02
  1.27692291E-01  9.62455328E-02  4.56152014E-02  9.44313107E-02  7.11757281E-02
  3.01181878E-01  6.23498277E-01  4.69949464E-01  1.68565052E-04 -2.81232349E-06
  8.72524651E-05  1.37711705E-05 -1.13312986E-04 -1.81477542E-02  3.02775409E-04
 -9.39362145E-03 -1.48260752E-03  1.21993034E-02 -2.17453112E-04  1.19735892E-04
 -4.33292359E-06 -4.55782388E-05  1.46136997E-04  6.08380676E-05 -7.34321361E-05
  3.73167841E-16  1.19752704E-16 -5.38566569E-17 -2.77611705E-15  1.32297697E-01
 -9.86935206E-02  4.61529867E-02  9.78371110E-02 -7.29860699E-02  3.41311679E-02
  6.45985635E-01 -4.81902544E-01  2.25356656E-01  8.08326413E-05  1.02518389E-04
 -1.19872964E-04 -1.32532076E-04  9.29205206E-06 -8.70246165E-03 -1.10371545E-02
  1.29055522E-02  1.42684352E-02 -1.00038458E-03 -1.04276118E-04 -3.73285401E-05
  1.45434873E-04  2.16592543E-04 -3.89695699E-05 -9.73540296E-05 -5.33035218E-05
 -2.57386356E-02 -2.31927305E-04  3.15392168E-03  1.75806766E-01 -8.75161639E-02
 -5.62107829E-02  1.30664281E-01 -5.89409609E-02 -3.78572072E-02  8.80006383E-02
 -4.37587391E-01 -2.81058135E-01  6.53331218E-01  1.86570802E-04 -3.16817975E-04
 -2.03489111E-04  6.23292434E-05  1.36292690E-04 -1.14916080E-02  1.95140287E-02
  1.25336713E-02 -3.83909607E-03 -8.39478714E-03 -8.80539886E-06  2.45629344E-04
  1.57765344E-04 -9.07894713E-05 -1.98525454E-04 -1.00409822E-05  7.02289449E-05
  1.48840788E-02 -1.27724060E+00 -3.98818236E-01  1.75296761E+00 -2.04905807E-02
 -1.31609011E-02  3.05930571E-02 -1.07792561E-01 -6.92341158E-02  1.60937556E-01
  1.40410104E-01  9.01840470E-02 -2.09636534E-01  2.11679061E-04 -3.59454591E-04
 -2.30874196E-04  7.07173661E-05  1.54634639E-04 -1.99720220E-03  3.39147147E-03
  2.17830921E-03 -6.67221774E-04 -1.45898530E-03 -1.43421860E-06  4.00079742E-05
  2.56967336E-05 -1.47877398E-05 -3.23357181E-05 -1.63546972E-06  1.14388524E-05
 -1.00627404E-15  3.18244585E-14  8.81550564E-15 -3.34844982E-14  1.51901036E-01
 -1.13315436E-01  5.29926509E-02  9.26483843E-01 -6.91140252E-01  3.23215930E-01
 -8.69725300E-01  6.48799402E-01 -3.03414975E-01 -3.65965337E-04 -4.64136075E-04
  5.42702226E-04  6.00017895E-04 -4.20629508E-05 -1.22355194E-02 -1.55177155E-02
  1.81444606E-02  2.00607268E-02 -1.40631366E-03 -1.44827143E-04 -5.18420288E-05
  2.01987281E-04  3.00814068E-04 -5.41207895E-05 -1.35209338E-04 -7.40317103E-05
  1.50216538E-11  1.41673196E-10  4.00223353E-11 -1.39450831E-10  7.08198192E-02
  1.46613693E-01  1.10505711E-01  4.31948457E-01  8.94234962E-01  6.74003012E-01
 -4.05486295E-01 -8.39452060E-01 -6.32712029E-01 -7.63148460E-04  1.27372310E-05
 -3.95027788E-04 -6.23531483E-05  5.13007524E-04 -2.55147602E-02  4.25850819E-04
 -1.32071803E-02 -2.08468694E-03  1.71516614E-02 -3.02008414E-04  1.66295836E-04
 -6.01990479E-06 -6.33045313E-05  2.02963057E-04  8.44964192E-05 -1.01985506E-04
 -1.22721664E-02  3.13378933E-01  8.41053200E-02 -3.23121214E-01 -1.00629673E-01
 -6.46334624E-02  1.50243147E-01 -6.16740899E-01 -3.96126695E-01  9.20812827E-01
  5.73482095E-01  3.68341985E-01 -8.56226123E-01 -4.98706266E-04  8.46858711E-04
  5.43929132E-04 -1.66606907E-04 -3.64312195E-04 -1.63313382E-02  2.77324289E-02
  1.78122700E-02 -5.45594457E-03 -1.19302806E-02 -1.22626232E-05  3.42069678E-04
  2.19708035E-04 -1.26435729E-04 -2.76471601E-04 -1.39833273E-05  9.78026166E-05
 -8.60878856E-16 -2.65755114E-15 -5.78585232E-16 -5.68994361E-16  4.75239305E-12
  9.84177288E-12  7.42082767E-12  1.24906725E-11  2.58676311E-11  1.95022777E-11
 -5.38287379E-12 -1.11534609E-11 -8.40689024E-12 -7.24085747E-02  1.97956675E-03
 -1.97437446E-01  1.18744498E-01 -2.45362659E-01  2.66533072E-01 -7.28670616E-03
  7.26759354E-01 -4.37093756E-01  9.03170151E-01 -2.28949531E-03  6.70289881E-04
 -4.01223146E-03  4.59319270E-04 -1.61166120E-03 -3.20540755E-03  1.96141973E-03
  3.35058609E-16  6.38465015E-16 -9.01074347E-16  1.99612100E-16  1.01890827E-11
 -7.59888327E-12  3.55680301E-12  2.67851689E-11 -1.99776980E-11  9.34936852E-12