test1 HF/cc-pVQZ sp formaldehyde                                        
SP        RB3LYP                                                      CC-pVQZ             
Number of atoms                            I                1
Info1-9                                    I   N=           9
          10          10           0           0           0         110
           1          18        -502
Full Title                                 C   N=           3
test1 HF/cc-pVQZ sp formaldehyde    
Route                                      C   N=           3
#P b3lyp/cc-pVQZ scf=tight          
Charge                                     I                0
Multiplicity                               I                1
Number of electrons                        I                6
Number of alpha electrons                  I                3
Number of beta electrons                   I                3
Number of basis functions                  I               55
Number of independent functions            I               55
Number of point charges in /Mol/           I                0
Number of translation vectors              I                0
Atomic numbers                             I   N=           1
           6
Nuclear charges                            R   N=           1
  6.00000000E+00
Current cartesian coordinates              R   N=           3
  0.00000000E+00  0.00000000E+00  0.00000000E+00
Number of symbols in /Mol/                 I                0
Int Atom Types                             I   N=           1
           0
Force Field                                I                0
Atom Types                                 C   N=           1
            
MM charges                                 R   N=           1
  0.00000000E+00
Integer atomic weights                     I   N=           1
          12
Real atomic weights                        R   N=           1
  1.20000000E+01
Atom fragment info                         I   N=           1
           0
Atom residue num                           I   N=           1
           0
Nuclear spins                              I   N=           1
           0
Nuclear ZEff                               R   N=           1
 -3.60000000E+00
Nuclear ZNuc                               R   N=           1
  6.00000000E+00
Nuclear QMom                               R   N=           1
  0.00000000E+00
Nuclear GFac                               R   N=           1
  0.00000000E+00
MicOpt                                     I   N=           1
          -1
Number of residues                         I                0
Number of secondary structures             I                0
SymInf integers                            I   N=          26
           1           8           1           1           1           1
          -1          -1          -1           1          -1          -1
          -1           1          -1          -1          -1          -1
           1           1           1          -1           1           1
           1          -1
RotTr to input orientation                 R   N=          12
  0.00000000E+00  0.00000000E+00 -1.00000000E+00  0.00000000E+00  1.00000000E+00
  0.00000000E+00  1.00000000E+00  0.00000000E+00  0.00000000E+00  0.00000000E+00
  0.00000000E+00  0.00000000E+00
Number of contracted shells                I               15
Number of primitive shells                 I               30
Pure/Cartesian d shells                    I                0
Pure/Cartesian f shells                    I                0
Highest angular momentum                   I                4
Largest degree of contraction              I                8
Shell types                                I   N=          15
           0           0           0           0           0           1
           1           1           1          -2          -2          -2
          -3          -3          -4
Number of primitives per shell             I   N=          15
           8           7           1           1           1           3
           1           1           1           1           1           1
           1           1           1
Shell to atom map                          I   N=          15
           1           1           1           1           1           1
           1           1           1           1           1           1
           1           1           1
Primitive exponents                        R   N=          30
  3.39800000E+04  5.08900000E+03  1.15700000E+03  3.26600000E+02  1.06100000E+02
  3.81100000E+01  1.47500000E+01  6.03500000E+00  5.08900000E+03  3.26600000E+02
  1.06100000E+02  3.81100000E+01  1.47500000E+01  6.03500000E+00  2.53000000E+00
  7.35500000E-01  2.90500000E-01  1.11100000E-01  3.45100000E+01  7.91500000E+00
  2.36800000E+00  8.13200000E-01  2.89000000E-01  1.00700000E-01  1.84800000E+00
  6.49000000E-01  2.28000000E-01  1.41900000E+00  4.85000000E-01  1.01100000E+00
Contraction coefficients                   R   N=          30
  1.46812411E-04  1.11646002E-03  5.89088711E-03  2.42172555E-02  8.31716388E-02
  2.20568478E-01  4.28731497E-01  3.64361422E-01 -1.00226536E-05 -4.36589437E-04
 -1.93231273E-03 -2.14839477E-02 -9.03091657E-02 -4.18791512E-01 -5.31801906E-01
  1.00000000E+00  1.00000000E+00  1.00000000E+00  3.16878552E-02  2.12894307E-01
  8.39586752E-01  1.00000000E+00  1.00000000E+00  1.00000000E+00  1.00000000E+00
  1.00000000E+00  1.00000000E+00  1.00000000E+00  1.00000000E+00  1.00000000E+00
Coordinates of each shell                  R   N=          45
  0.00000000E+00  0.00000000E+00  0.00000000E+00  0.00000000E+00  0.00000000E+00
  0.00000000E+00  0.00000000E+00  0.00000000E+00  0.00000000E+00  0.00000000E+00
  0.00000000E+00  0.00000000E+00  0.00000000E+00  0.00000000E+00  0.00000000E+00
  0.00000000E+00  0.00000000E+00  0.00000000E+00  0.00000000E+00  0.00000000E+00
  0.00000000E+00  0.00000000E+00  0.00000000E+00  0.00000000E+00  0.00000000E+00
  0.00000000E+00  0.00000000E+00  0.00000000E+00  0.00000000E+00  0.00000000E+00
  0.00000000E+00  0.00000000E+00  0.00000000E+00  0.00000000E+00  0.00000000E+00
  0.00000000E+00  0.00000000E+00  0.00000000E+00  0.00000000E+00  0.00000000E+00
  0.00000000E+00  0.00000000E+00  0.00000000E+00  0.00000000E+00  0.00000000E+00
Num ILSW                                   I              100
ILSW                                       I   N=         100
           0           0           0           0           2           0
           0           0           0           0         402          -1
           5           0           0           0           0           0
           0           0           0           0           0           0
           1           0           0           0           0           0
           0           0      100000           0          -1           0
           0           0           0           0           0           0
           0           0           0           1           0           0
           0 -2000000000           1           0           0           0
           0           1           4          52           0           0
           0           0           5           0           0           0
           0           0           0           1           0           1
           0           0           0           0           0           0
           0           0           0           0           0           0
           0           0           0           0           0           0
           0           0           0           0           0           0
           0           0           0           0
Num RLSW                                   I               52
RLSW                                       R   N=          52
  8.00000000E-01  7.20000000E-01  1.00000000E+00  8.10000000E-01  2.00000000E-01
  0.00000000E+00  0.00000000E+00  1.00000000E+00  0.00000000E+00  0.00000000E+00
  0.00000000E+00  0.00000000E+00  1.00000000E+00  0.00000000E+00  0.00000000E+00
  0.00000000E+00  0.00000000E+00  1.00000000E+00  0.00000000E+00  0.00000000E+00
  0.00000000E+00  0.00000000E+00  1.00000000E+00  0.00000000E+00  0.00000000E+00
  0.00000000E+00  0.00000000E+00  1.00000000E+00  0.00000000E+00  0.00000000E+00
  0.00000000E+00  0.00000000E+00  1.00000000E+00  0.00000000E+00  0.00000000E+00
  0.00000000E+00  0.00000000E+00  0.00000000E+00  1.00000000E+00  1.00000000E+00
  0.00000000E+00  1.00000000E+00  0.00000000E+00  0.00000000E+00  0.00000000E+00
  0.00000000E+00  0.00000000E+00  0.00000000E+00  0.00000000E+00  0.00000000E+00
  0.00000000E+00  0.00000000E+00
MxBond                                     I                1
NBond                                      I   N=           1
           0
IBond                                      I   N=           1
           0
RBond                                      R   N=           1
  0.00000000E+00
Virial Ratio                               R      2.004439469301611E+00
SCF Energy                                 R     -3.779530020064694E+01
Total Energy                               R     -3.779530020064694E+01
RMS Density                                R      1.116767098249968E-09
Job Status                                 I                1
Nuclear derivative order                   I                0
External E-field                           R   N=          35
  0.00000000E+00  0.00000000E+00  0.00000000E+00  0.00000000E+00  0.00000000E+00
  0.00000000E+00  0.00000000E+00  0.00000000E+00  0.00000000E+00  0.00000000E+00
  0.00000000E+00  0.00000000E+00  0.00000000E+00  0.00000000E+00  0.00000000E+00
  0.00000000E+00  0.00000000E+00  0.00000000E+00  0.00000000E+00  0.00000000E+00
  0.00000000E+00  0.00000000E+00  0.00000000E+00  0.00000000E+00  0.00000000E+00
  0.00000000E+00  0.00000000E+00  0.00000000E+00  0.00000000E+00  0.00000000E+00
  0.00000000E+00  0.00000000E+00  0.00000000E+00  0.00000000E+00  0.00000000E+00
IOpCl                                      I                0
IROHF                                      I                0
Alpha Orbital Energies                     R   N=          55
 -1.03257903E+01 -5.50846244E-01 -2.19041839E-01 -1.55166544E-01 -1.55166544E-01
  1.99666811E-01  2.24288268E-01  2.24288268E-01  2.25985385E-01  4.68745620E-01
  4.68745634E-01  4.79378821E-01  4.79378821E-01  4.90893468E-01  1.24304954E+00
  1.24304954E+00  1.25774310E+00  1.65356892E+00  1.65356892E+00  1.65474036E+00
  1.66819377E+00  1.66819377E+00  1.68651520E+00  1.68651520E+00  1.69157125E+00
  1.80251257E+00  1.80251257E+00  1.82052747E+00  1.82052747E+00  1.84143677E+00
  4.73697068E+00  4.73697069E+00  4.75053973E+00  4.75053973E+00  4.77234826E+00
  4.77234828E+00  4.78459188E+00  4.78459188E+00  4.79018186E+00  5.19510034E+00
  5.19510034E+00  5.22399852E+00  5.81666582E+00  5.81666582E+00  5.82736675E+00
  5.82736683E+00  5.83942193E+00  5.83942201E+00  5.84649548E+00  5.84649548E+00
  5.85316714E+00  5.85316714E+00  5.85744529E+00  5.86763717E+00  1.91163655E+01
Alpha MO coefficients                      R   N=        3025
  6.25457377E-01 -4.03947417E-01  3.20424384E-02 -1.38492177E-02  4.33521949E-03
  0.00000000E+00  0.00000000E+00  0.00000000E+00  0.00000000E+00  0.00000000E+00
  0.00000000E+00  0.00000000E+00  0.00000000E+00  0.00000000E+00  0.00000000E+00
  0.00000000E+00  0.00000000E+00  7.45414453E-05  0.00000000E+00  0.00000000E+00
  1.29109570E-04  0.00000000E+00 -1.20195054E-04  0.00000000E+00  0.00000000E+00
 -2.08183941E-04  0.00000000E+00  7.55419031E-06  0.00000000E+00  0.00000000E+00
  1.30842414E-05  0.00000000E+00  0.00000000E+00  0.00000000E+00  0.00000000E+00
  0.00000000E+00  0.00000000E+00  0.00000000E+00  0.00000000E+00  0.00000000E+00
  0.00000000E+00  0.00000000E+00  0.00000000E+00  0.00000000E+00  0.00000000E+00
  0.00000000E+00 -1.57548902E-05  0.00000000E+00  0.00000000E+00 -2.34862269E-05
  0.00000000E+00  0.00000000E+00  0.00000000E+00 -3.10692313E-05  0.00000000E+00
 -1.42651880E-01  2.22022552E-01  2.91624684E-01  5.74386511E-01  2.82286773E-01
  0.00000000E+00  0.00000000E+00  0.00000000E+00  0.00000000E+00  0.00000000E+00
  0.00000000E+00  0.00000000E+00  0.00000000E+00  0.00000000E+00  0.00000000E+00
  0.00000000E+00  0.00000000E+00 -6.19807797E-04  0.00000000E+00  0.00000000E+00
 -1.07353859E-03  0.00000000E+00  4.27519321E-03  0.00000000E+00  0.00000000E+00
  7.40485186E-03  0.00000000E+00  2.08261952E-03  0.00000000E+00  0.00000000E+00
  3.60720283E-03  0.00000000E+00  0.00000000E+00  0.00000000E+00  0.00000000E+00
  0.00000000E+00  0.00000000E+00  0.00000000E+00  0.00000000E+00  0.00000000E+00
  0.00000000E+00  0.00000000E+00  0.00000000E+00  0.00000000E+00  0.00000000E+00
  0.00000000E+00 -5.59398394E-04  0.00000000E+00  0.00000000E+00 -8.33903311E-04
  0.00000000E+00  0.00000000E+00  0.00000000E+00 -1.10314958E-03  0.00000000E+00
  0.00000000E+00  0.00000000E+00  0.00000000E+00  0.00000000E+00  0.00000000E+00
  0.00000000E+00  1.78119051E-01  0.00000000E+00  0.00000000E+00  3.34799451E-01
  0.00000000E+00  0.00000000E+00  4.06958917E-01  0.00000000E+00  0.00000000E+00
  3.26229443E-01  0.00000000E+00  0.00000000E+00  0.00000000E+00  0.00000000E+00
  0.00000000E+00  0.00000000E+00  0.00000000E+00  0.00000000E+00  0.00000000E+00
  0.00000000E+00  0.00000000E+00  0.00000000E+00  0.00000000E+00  0.00000000E+00
  0.00000000E+00  0.00000000E+00  0.00000000E+00  0.00000000E+00  1.40839176E-03
  0.00000000E+00  0.00000000E+00  0.00000000E+00  1.81822594E-03  0.00000000E+00
  0.00000000E+00  6.98427082E-03  0.00000000E+00  0.00000000E+00  0.00000000E+00
  9.01665485E-03  0.00000000E+00  0.00000000E+00  0.00000000E+00  0.00000000E+00
  0.00000000E+00  0.00000000E+00  0.00000000E+00  0.00000000E+00  0.00000000E+00
  0.00000000E+00  0.00000000E+00  0.00000000E+00  0.00000000E+00  0.00000000E+00
  1.66145142E-01  0.00000000E+00  0.00000000E+00  3.15612991E-01  0.00000000E+00
  0.00000000E+00  4.03282515E-01  0.00000000E+00  0.00000000E+00  3.60732464E-01
  0.00000000E+00  0.00000000E+00  0.00000000E+00  0.00000000E+00  0.00000000E+00
  0.00000000E+00  0.00000000E+00  0.00000000E+00  0.00000000E+00  0.00000000E+00
  0.00000000E+00  0.00000000E+00  0.00000000E+00  0.00000000E+00  0.00000000E+00
  0.00000000E+00  0.00000000E+00  0.00000000E+00  1.05794112E-04  0.00000000E+00
  0.00000000E+00  0.00000000E+00  4.09747991E-04  0.00000000E+00  0.00000000E+00
  1.58840356E-03  0.00000000E+00  0.00000000E+00  0.00000000E+00  6.15185727E-03
  0.00000000E+00  0.00000000E+00  0.00000000E+00  0.00000000E+00  0.00000000E+00
  0.00000000E+00  0.00000000E+00  0.00000000E+00  0.00000000E+00  0.00000000E+00
  0.00000000E+00  0.00000000E+00  0.00000000E+00  0.00000000E+00  0.00000000E+00
  0.00000000E+00  0.00000000E+00  1.66145142E-01  0.00000000E+00  0.00000000E+00
  3.15612991E-01  0.00000000E+00  0.00000000E+00  4.03282515E-01  0.00000000E+00
  0.00000000E+00  3.60732464E-01  0.00000000E+00  0.00000000E+00  0.00000000E+00
  0.00000000E+00  0.00000000E+00  0.00000000E+00  0.00000000E+00  0.00000000E+00
  0.00000000E+00  0.00000000E+00  0.00000000E+00  0.00000000E+00  0.00000000E+00
  0.00000000E+00  0.00000000E+00  2.59148832E-04  0.00000000E+00  0.00000000E+00
  3.34555965E-04  0.00000000E+00  0.00000000E+00  0.00000000E+00  3.89077565E-03
  0.00000000E+00  0.00000000E+00  5.02297110E-03  0.00000000E+00  0.00000000E+00
  0.00000000E+00  0.00000000E+00  0.00000000E+00  0.00000000E+00  0.00000000E+00
  0.00000000E+00  0.00000000E+00  0.00000000E+00  0.00000000E+00  0.00000000E+00
  9.11189419E-02 -1.03006092E-01  1.35712333E-01 -1.91901825E+00  1.97398304E+00
  0.00000000E+00  0.00000000E+00  0.00000000E+00  0.00000000E+00  0.00000000E+00
  0.00000000E+00  0.00000000E+00  0.00000000E+00  0.00000000E+00  0.00000000E+00
  0.00000000E+00  0.00000000E+00  7.61892803E-04  0.00000000E+00  0.00000000E+00
  1.31963704E-03  0.00000000E+00 -5.83767901E-03  0.00000000E+00  0.00000000E+00
 -1.01111566E-02  0.00000000E+00  1.37102078E-02  0.00000000E+00  0.00000000E+00
  2.37467765E-02  0.00000000E+00  0.00000000E+00  0.00000000E+00  0.00000000E+00
  0.00000000E+00  0.00000000E+00  0.00000000E+00  0.00000000E+00  0.00000000E+00
  0.00000000E+00  0.00000000E+00  0.00000000E+00  0.00000000E+00  0.00000000E+00
  0.00000000E+00  2.13430325E-04  0.00000000E+00  0.00000000E+00  3.18164050E-04
  0.00000000E+00  0.00000000E+00  0.00000000E+00  4.20890963E-04  0.00000000E+00
  0.00000000E+00  0.00000000E+00  0.00000000E+00  0.00000000E+00  0.00000000E+00
  0.00000000E+00  0.00000000E+00 -1.49986724E-01  0.00000000E+00  0.00000000E+00
 -1.48021961E-01  0.00000000E+00  0.00000000E+00 -8.45241393E-01  0.00000000E+00
  0.00000000E+00  1.30055599E+00  0.00000000E+00  0.00000000E+00  0.00000000E+00
  0.00000000E+00  0.00000000E+00  0.00000000E+00  0.00000000E+00  0.00000000E+00
  0.00000000E+00  0.00000000E+00  0.00000000E+00  0.00000000E+00  0.00000000E+00
  0.00000000E+00  0.00000000E+00 -6.70879301E-04  0.00000000E+00  0.00000000E+00
 -8.66098849E-04  0.00000000E+00  0.00000000E+00  0.00000000E+00 -5.39966681E-04
  0.00000000E+00  0.00000000E+00 -6.97093966E-04  0.00000000E+00  0.00000000E+00
  0.00000000E+00  0.00000000E+00  0.00000000E+00  0.00000000E+00  0.00000000E+00
  0.00000000E+00  0.00000000E+00  0.00000000E+00  0.00000000E+00  0.00000000E+00
  0.00000000E+00  0.00000000E+00  0.00000000E+00  0.00000000E+00  0.00000000E+00
 -1.49986724E-01  0.00000000E+00  0.00000000E+00 -1.48021961E-01  0.00000000E+00
  0.00000000E+00 -8.45241393E-01  0.00000000E+00  0.00000000E+00  1.30055599E+00
  0.00000000E+00  0.00000000E+00  0.00000000E+00  0.00000000E+00  0.00000000E+00
  0.00000000E+00  0.00000000E+00  0.00000000E+00  0.00000000E+00  0.00000000E+00
  0.00000000E+00  0.00000000E+00  0.00000000E+00  0.00000000E+00  0.00000000E+00
  0.00000000E+00  0.00000000E+00  0.00000000E+00 -2.73883269E-04  0.00000000E+00
  0.00000000E+00  0.00000000E+00 -1.06075172E-03  0.00000000E+00  0.00000000E+00
 -2.20440457E-04  0.00000000E+00  0.00000000E+00  0.00000000E+00 -8.53762273E-04
  0.00000000E+00  0.00000000E+00  0.00000000E+00  0.00000000E+00  0.00000000E+00
  0.00000000E+00  0.00000000E+00  0.00000000E+00  0.00000000E+00  0.00000000E+00
  0.00000000E+00  0.00000000E+00  0.00000000E+00  0.00000000E+00  0.00000000E+00
  0.00000000E+00 -1.47968291E-01  0.00000000E+00  0.00000000E+00 -1.36742546E-01
  0.00000000E+00  0.00000000E+00 -8.26761783E-01  0.00000000E+00  0.00000000E+00
  1.31058351E+00  0.00000000E+00  0.00000000E+00  0.00000000E+00  0.00000000E+00
  0.00000000E+00  0.00000000E+00  0.00000000E+00  0.00000000E+00  0.00000000E+00
  0.00000000E+00  0.00000000E+00  0.00000000E+00  0.00000000E+00  0.00000000E+00
  0.00000000E+00  0.00000000E+00  0.00000000E+00  0.00000000E+00 -1.75521945E-03
  0.00000000E+00  0.00000000E+00  0.00000000E+00 -2.26597857E-03  0.00000000E+00
  0.00000000E+00 -5.91266730E-04  0.00000000E+00  0.00000000E+00  0.00000000E+00
 -7.63322066E-04  0.00000000E+00  0.00000000E+00  0.00000000E+00  0.00000000E+00
  0.00000000E+00  0.00000000E+00  0.00000000E+00  0.00000000E+00  0.00000000E+00
  0.00000000E+00  0.00000000E+00  0.00000000E+00  0.00000000E+00  0.00000000E+00
  0.00000000E+00  0.00000000E+00  0.00000000E+00  0.00000000E+00  0.00000000E+00
  0.00000000E+00  0.00000000E+00  0.00000000E+00  0.00000000E+00  0.00000000E+00
  0.00000000E+00  0.00000000E+00  0.00000000E+00  5.15459158E-02  0.00000000E+00
  0.00000000E+00  0.00000000E+00  0.00000000E+00 -1.02814851E-01  0.00000000E+00
  0.00000000E+00  0.00000000E+00  0.00000000E+00  1.05328930E+00  0.00000000E+00
  0.00000000E+00  0.00000000E+00  0.00000000E+00  0.00000000E+00  0.00000000E+00
  0.00000000E+00  0.00000000E+00  0.00000000E+00  0.00000000E+00  0.00000000E+00
  0.00000000E+00  0.00000000E+00  0.00000000E+00  0.00000000E+00  0.00000000E+00
  0.00000000E+00  0.00000000E+00  5.54126496E-04  0.00000000E+00  0.00000000E+00
  0.00000000E+00  1.46608090E-03  0.00000000E+00  0.00000000E+00  0.00000000E+00
 -9.92913578E-17  2.77485757E-16  6.58787362E-16  1.71932102E-15 -3.01681547E-15
  0.00000000E+00  0.00000000E+00  0.00000000E+00  0.00000000E+00  0.00000000E+00
  0.00000000E+00  0.00000000E+00  0.00000000E+00  0.00000000E+00  0.00000000E+00
  0.00000000E+00  0.00000000E+00  4.46400723E-02  0.00000000E+00  0.00000000E+00
 -2.57729578E-02  0.00000000E+00 -8.90402621E-02  0.00000000E+00  0.00000000E+00
  5.14074193E-02  0.00000000E+00  9.12175286E-01  0.00000000E+00  0.00000000E+00
 -5.26644647E-01  0.00000000E+00  0.00000000E+00  0.00000000E+00  0.00000000E+00
  0.00000000E+00  0.00000000E+00  0.00000000E+00  0.00000000E+00  0.00000000E+00
  0.00000000E+00  0.00000000E+00  0.00000000E+00  0.00000000E+00  0.00000000E+00
  0.00000000E+00  8.76151507E-04  0.00000000E+00  0.00000000E+00  7.83653731E-04
  0.00000000E+00  0.00000000E+00  0.00000000E+00 -1.03667644E-03  0.00000000E+00
  0.00000000E+00  0.00000000E+00  0.00000000E+00  0.00000000E+00  0.00000000E+00
  0.00000000E+00  0.00000000E+00  0.00000000E+00  0.00000000E+00  0.00000000E+00
  0.00000000E+00  0.00000000E+00  0.00000000E+00  0.00000000E+00  0.00000000E+00
  0.00000000E+00  0.00000000E+00  0.00000000E+00  0.00000000E+00  5.30702033E-02
  0.00000000E+00  0.00000000E+00  0.00000000E+00  0.00000000E+00 -1.06121530E-01
  0.00000000E+00  0.00000000E+00  0.00000000E+00  0.00000000E+00  1.05496551E+00
  0.00000000E+00  0.00000000E+00  0.00000000E+00  0.00000000E+00  0.00000000E+00
  0.00000000E+00  0.00000000E+00  0.00000000E+00  0.00000000E+00  0.00000000E+00
  0.00000000E+00  0.00000000E+00  0.00000000E+00  0.00000000E+00  0.00000000E+00
  0.00000000E+00  0.00000000E+00  0.00000000E+00  2.62337359E-03  0.00000000E+00
  0.00000000E+00  0.00000000E+00  2.31359861E-03  0.00000000E+00  0.00000000E+00
  0.00000000E+00  0.00000000E+00  0.00000000E+00  0.00000000E+00  0.00000000E+00
  0.00000000E+00  0.00000000E+00  0.00000000E+00  0.00000000E+00  0.00000000E+00
  0.00000000E+00  0.00000000E+00  0.00000000E+00  0.00000000E+00  0.00000000E+00
  0.00000000E+00  0.00000000E+00  0.00000000E+00  0.00000000E+00  0.00000000E+00
  0.00000000E+00  5.30702033E-02  0.00000000E+00  0.00000000E+00  0.00000000E+00
  0.00000000E+00 -1.06121530E-01  0.00000000E+00  0.00000000E+00  0.00000000E+00
  0.00000000E+00  1.05496551E+00  0.00000000E+00  0.00000000E+00  0.00000000E+00
  0.00000000E+00  0.00000000E+00  0.00000000E+00  0.00000000E+00  0.00000000E+00
  0.00000000E+00  0.00000000E+00  0.00000000E+00  0.00000000E+00  0.00000000E+00
  0.00000000E+00  0.00000000E+00  0.00000000E+00  0.00000000E+00  0.00000000E+00
  1.23667071E-03  0.00000000E+00  0.00000000E+00  0.00000000E+00  3.27192193E-03
  5.95020468E-04 -4.77585321E-03 -3.11591738E-02  6.53651032E-02 -5.54558938E-02
  0.00000000E+00  0.00000000E+00  0.00000000E+00  0.00000000E+00  0.00000000E+00
  0.00000000E+00  0.00000000E+00  0.00000000E+00  0.00000000E+00  0.00000000E+00
  0.00000000E+00  0.00000000E+00  2.67937107E-02  0.00000000E+00  0.00000000E+00
  4.64080682E-02  0.00000000E+00 -5.51102101E-02  0.00000000E+00  0.00000000E+00
 -9.54536839E-02  0.00000000E+00  5.28505776E-01  0.00000000E+00  0.00000000E+00
  9.15398857E-01  0.00000000E+00  0.00000000E+00  0.00000000E+00  0.00000000E+00
  0.00000000E+00  0.00000000E+00  0.00000000E+00  0.00000000E+00  0.00000000E+00
  0.00000000E+00  0.00000000E+00  0.00000000E+00  0.00000000E+00  0.00000000E+00
  0.00000000E+00  1.42125192E-03  0.00000000E+00  0.00000000E+00  2.11867650E-03
  0.00000000E+00  0.00000000E+00  0.00000000E+00  2.80274601E-03  0.00000000E+00
  0.00000000E+00  0.00000000E+00  0.00000000E+00  0.00000000E+00  0.00000000E+00
 -2.08599084E-01  0.00000000E+00  0.00000000E+00 -1.25639954E+00  0.00000000E+00
  0.00000000E+00  1.90807570E+00  0.00000000E+00  0.00000000E+00 -8.37789983E-01
  0.00000000E+00  0.00000000E+00  0.00000000E+00  0.00000000E+00  0.00000000E+00
  0.00000000E+00  0.00000000E+00  0.00000000E+00  0.00000000E+00  0.00000000E+00
  0.00000000E+00  0.00000000E+00  0.00000000E+00  0.00000000E+00  0.00000000E+00
  0.00000000E+00  0.00000000E+00  0.00000000E+00 -9.50535521E-04  0.00000000E+00
  0.00000000E+00  0.00000000E+00 -3.68142312E-03  0.00000000E+00  0.00000000E+00
  5.97947538E-03  0.00000000E+00  0.00000000E+00  0.00000000E+00  2.31584118E-02
  0.00000000E+00  0.00000000E+00  0.00000000E+00  0.00000000E+00  0.00000000E+00
  0.00000000E+00  0.00000000E+00  0.00000000E+00  0.00000000E+00  0.00000000E+00
  0.00000000E+00  0.00000000E+00  0.00000000E+00  0.00000000E+00  0.00000000E+00
  0.00000000E+00  0.00000000E+00 -2.08599084E-01  0.00000000E+00  0.00000000E+00
 -1.25639954E+00  0.00000000E+00  0.00000000E+00  1.90807570E+00  0.00000000E+00
  0.00000000E+00 -8.37789983E-01  0.00000000E+00  0.00000000E+00  0.00000000E+00
  0.00000000E+00  0.00000000E+00  0.00000000E+00  0.00000000E+00  0.00000000E+00
  0.00000000E+00  0.00000000E+00  0.00000000E+00  0.00000000E+00  0.00000000E+00
  0.00000000E+00  0.00000000E+00 -2.32833877E-03  0.00000000E+00  0.00000000E+00
 -3.00586635E-03  0.00000000E+00  0.00000000E+00  0.00000000E+00  1.46466661E-02
  0.00000000E+00  0.00000000E+00  1.89087634E-02  0.00000000E+00  0.00000000E+00
  0.00000000E+00  0.00000000E+00  0.00000000E+00  0.00000000E+00  0.00000000E+00
  0.00000000E+00  0.00000000E+00  0.00000000E+00  0.00000000E+00  0.00000000E+00
  0.00000000E+00  0.00000000E+00  0.00000000E+00  0.00000000E+00  0.00000000E+00
  0.00000000E+00 -2.08304452E-01  0.00000000E+00  0.00000000E+00 -1.24688026E+00
  0.00000000E+00  0.00000000E+00  1.91375700E+00  0.00000000E+00  0.00000000E+00
 -8.36160267E-01  0.00000000E+00  0.00000000E+00  0.00000000E+00  0.00000000E+00
  0.00000000E+00  0.00000000E+00  0.00000000E+00  0.00000000E+00  0.00000000E+00
  0.00000000E+00  0.00000000E+00  0.00000000E+00  0.00000000E+00  0.00000000E+00
  0.00000000E+00  0.00000000E+00  0.00000000E+00  0.00000000E+00 -5.05817119E-03
  0.00000000E+00  0.00000000E+00  0.00000000E+00 -6.53007092E-03  0.00000000E+00
  0.00000000E+00  2.57142593E-02  0.00000000E+00  0.00000000E+00  0.00000000E+00
  3.31969660E-02  0.00000000E+00  0.00000000E+00  0.00000000E+00  0.00000000E+00
  0.00000000E+00  0.00000000E+00  0.00000000E+00  0.00000000E+00  0.00000000E+00
  0.00000000E+00  0.00000000E+00  0.00000000E+00  0.00000000E+00  0.00000000E+00
  5.77070588E-11  0.00000000E+00  0.00000000E+00  1.53179835E-09  0.00000000E+00
  0.00000000E+00 -9.60994158E-10  0.00000000E+00  0.00000000E+00 -1.54903562E-10
  0.00000000E+00  0.00000000E+00  0.00000000E+00  0.00000000E+00  0.00000000E+00
  0.00000000E+00  0.00000000E+00  0.00000000E+00  0.00000000E+00  0.00000000E+00
  0.00000000E+00  0.00000000E+00  0.00000000E+00  0.00000000E+00  0.00000000E+00
  0.00000000E+00  0.00000000E+00  0.00000000E+00 -1.01239258E-01  0.00000000E+00
  0.00000000E+00  0.00000000E+00  2.61398638E-02  0.00000000E+00  0.00000000E+00
  1.01897500E+00  0.00000000E+00  0.00000000E+00  0.00000000E+00 -2.63098221E-01
  0.00000000E+00  0.00000000E+00  0.00000000E+00  0.00000000E+00  0.00000000E+00
  0.00000000E+00  0.00000000E+00  0.00000000E+00  0.00000000E+00  0.00000000E+00
  0.00000000E+00  0.00000000E+00  0.00000000E+00  0.00000000E+00  0.00000000E+00
  0.00000000E+00  0.00000000E+00 -5.77071917E-11  0.00000000E+00  0.00000000E+00
 -1.53179685E-09  0.00000000E+00  0.00000000E+00  9.60991447E-10  0.00000000E+00
  0.00000000E+00  1.54904515E-10  0.00000000E+00  0.00000000E+00  0.00000000E+00
  0.00000000E+00  0.00000000E+00  0.00000000E+00  0.00000000E+00  0.00000000E+00
  0.00000000E+00  0.00000000E+00  0.00000000E+00  0.00000000E+00  0.00000000E+00
  0.00000000E+00  0.00000000E+00 -8.26615076E-02  0.00000000E+00  0.00000000E+00
  6.40293286E-02  0.00000000E+00  0.00000000E+00  0.00000000E+00  8.31989611E-01
  0.00000000E+00  0.00000000E+00 -6.44456374E-01  0.00000000E+00  0.00000000E+00
  0.00000000E+00  0.00000000E+00  0.00000000E+00  0.00000000E+00  0.00000000E+00
  0.00000000E+00  0.00000000E+00  0.00000000E+00  0.00000000E+00  0.00000000E+00
  1.52457050E-01 -5.54778720E-01 -3.03185185E+00  3.62670977E+00 -1.41364100E+00
  0.00000000E+00  0.00000000E+00  0.00000000E+00  0.00000000E+00  0.00000000E+00
  0.00000000E+00  0.00000000E+00  0.00000000E+00  0.00000000E+00  0.00000000E+00
  0.00000000E+00  0.00000000E+00 -3.50934036E-03  0.00000000E+00  0.00000000E+00
 -6.07835581E-03  0.00000000E+00  2.63096019E-02  0.00000000E+00  0.00000000E+00
  4.55695672E-02  0.00000000E+00 -1.91680032E-02  0.00000000E+00  0.00000000E+00
 -3.31999553E-02  0.00000000E+00  0.00000000E+00  0.00000000E+00  0.00000000E+00
  0.00000000E+00  0.00000000E+00  0.00000000E+00  0.00000000E+00  0.00000000E+00
  0.00000000E+00  0.00000000E+00  0.00000000E+00  0.00000000E+00  0.00000000E+00
  0.00000000E+00  1.82183064E-05  0.00000000E+00  0.00000000E+00  2.71615209E-05
  0.00000000E+00  0.00000000E+00  0.00000000E+00  3.59294591E-05  0.00000000E+00
  0.00000000E+00  0.00000000E+00  0.00000000E+00  0.00000000E+00  0.00000000E+00
  0.00000000E+00  0.00000000E+00  0.00000000E+00  0.00000000E+00  0.00000000E+00
  0.00000000E+00  0.00000000E+00  0.00000000E+00  0.00000000E+00  0.00000000E+00
  0.00000000E+00  0.00000000E+00  0.00000000E+00  0.00000000E+00  0.00000000E+00
  0.00000000E+00  0.00000000E+00  0.00000000E+00  0.00000000E+00  0.00000000E+00
  0.00000000E+00  0.00000000E+00  0.00000000E+00  0.00000000E+00  0.00000000E+00
  0.00000000E+00  0.00000000E+00  0.00000000E+00  0.00000000E+00  0.00000000E+00
  0.00000000E+00 -1.04765565E-01  0.00000000E+00  0.00000000E+00  0.00000000E+00
  0.00000000E+00  0.00000000E+00  0.00000000E+00  1.05248842E+00  0.00000000E+00
  0.00000000E+00  0.00000000E+00  0.00000000E+00  0.00000000E+00  0.00000000E+00
  0.00000000E+00  0.00000000E+00  0.00000000E+00  0.00000000E+00  0.00000000E+00
  0.00000000E+00  0.00000000E+00  0.00000000E+00  0.00000000E+00  0.00000000E+00
  0.00000000E+00  1.04104927E-15  0.00000000E+00  0.00000000E+00  4.41635946E-15