kr atoms hf/cc-pvdz                                                     
Stability RHF                                                         CC-pVDZ             
Number of atoms                            I                1
Info1-9                                    I   N=           9
          13           9           0           0           0         110
           7           1           2
Charge                                     I                0
Multiplicity                               I                1
Number of electrons                        I               36
Number of alpha electrons                  I               18
Number of beta electrons                   I               18
Number of basis functions                  I               27
Number of independent functions            I               27
Number of point charges in /Mol/           I                0
Number of translation vectors              I                0
Atomic numbers                             I   N=           1
          36
Nuclear charges                            R   N=           1
  3.60000000E+01
Current cartesian coordinates              R   N=           3
  0.00000000E+00  0.00000000E+00  0.00000000E+00
Force Field                                I                0
Int Atom Types                             I   N=           1
           0
MM charges                                 R   N=           1
  0.00000000E+00
Integer atomic weights                     I   N=           1
          84
Real atomic weights                        R   N=           1
  8.39115064E+01
Atom fragment info                         I   N=           1
           0
Atom residue num                           I   N=           1
           0
Nuclear spins                              I   N=           1
           0
Nuclear ZEff                               R   N=           1
 -2.41200000E+01
Nuclear ZNuc                               R   N=           1
  3.60000000E+01
Nuclear QMom                               R   N=           1
  0.00000000E+00
Nuclear GFac                               R   N=           1
  0.00000000E+00
MicOpt                                     I   N=           1
          -1
Number of contracted shells                I               11
Number of primitive shells                 I               67
Pure/Cartesian d shells                    I                0
Pure/Cartesian f shells                    I                0
Highest angular momentum                   I                2
Largest degree of contraction              I               10
Shell types                                I   N=          11
           0           0           0           0           0           1
           1           1           1          -2          -2
Number of primitives per shell             I   N=          11
          10           9           9           7           1           8
           8           8           1           5           1
Shell to atom map                          I   N=          11
           1           1           1           1           1           1
           1           1           1           1           1
Primitive exponents                        R   N=          67
  6.81358820E+05  1.02126480E+05  2.32437100E+04  6.58200730E+03  2.14642860E+03
  7.74337820E+02  3.01670200E+02  1.23411840E+02  3.85675510E+01  5.19879500E+00
  2.32437100E+04  6.58200730E+03  2.14642860E+03  7.74337820E+02  3.01670200E+02
  1.23411840E+02  3.85675510E+01  1.66373790E+01  5.19879500E+00  2.32437100E+04
  6.58200730E+03  7.74337820E+02  3.01670200E+02  1.23411840E+02  3.85675510E+01
  1.66373790E+01  5.19879500E+00  2.29481400E+00  7.74337820E+02  1.23411840E+02
  3.85675510E+01  1.66373790E+01  5.19879500E+00  2.29481400E+00  4.85211000E-01
  1.86270000E-01  4.47426990E+03  1.06057900E+03  3.42208120E+02  1.28998420E+02
  5.30872220E+01  2.29594250E+01  9.50730000E+00  1.75044600E+00  1.06057900E+03
  3.42208120E+02  1.28998420E+02  5.30872220E+01  2.29594250E+01  9.50730000E+00
  4.08305500E+00  1.75044600E+00  1.06057900E+03  3.42208120E+02  5.30872220E+01
  2.29594250E+01  9.50730000E+00  4.08305500E+00  1.75044600E+00  5.29190000E-01
  1.64369000E-01  1.15525320E+02  3.34652460E+01  1.18304590E+01  4.33977100E+00
  1.50752400E+00  5.03000000E-01
Contraction coefficients                   R   N=          67
  1.96080991E-04  1.52228828E-03  7.91664171E-03  3.23574449E-02  1.06246404E-01
  2.66269055E-01  4.17402305E-01  2.83380372E-01  3.79149657E-02  5.09891882E-03
 -3.87367140E-05 -1.63432862E-04 -2.72802240E-03 -1.46207795E-02 -7.78555960E-02
 -9.32308955E-02  4.41765882E-01  6.04380507E-01  9.18154482E-02 -4.28690058E-06
  1.49884811E-05  9.28244038E-04  3.30057503E-03  1.15395863E-02 -9.75789925E-02
 -2.88783580E-01  4.97452079E-01  7.18611565E-01  3.05583321E-05  1.91538526E-05
  2.71657501E-03  2.16538128E-02 -9.01722084E-02 -4.91108710E-01  1.26102284E+00
  1.00000000E+00  1.51680498E-03  1.27197080E-02  6.35300028E-02  2.08165677E-01
  4.11389957E-01  3.87096851E-01  1.01555354E-01  3.95489254E-03 -1.36759967E-05
 -7.83982698E-04 -5.91417947E-03 -2.64075375E-02 -4.60639703E-03  2.92682076E-01
  5.56203169E-01  2.55634173E-01 -3.94259950E-05  1.26892066E-04  4.98841213E-03
 -5.63140490E-03 -4.32014457E-02 -1.76102553E-01  5.72569886E-02  1.01046173E+00
  1.00000000E+00  2.19556987E-02  1.32161992E-01  3.63348378E-01  4.92958171E-01
  2.66755984E-01  1.00000000E+00
Coordinates of each shell                  R   N=          33
  0.00000000E+00  0.00000000E+00  0.00000000E+00  0.00000000E+00  0.00000000E+00
  0.00000000E+00  0.00000000E+00  0.00000000E+00  0.00000000E+00  0.00000000E+00
  0.00000000E+00  0.00000000E+00  0.00000000E+00  0.00000000E+00  0.00000000E+00
  0.00000000E+00  0.00000000E+00  0.00000000E+00  0.00000000E+00  0.00000000E+00
  0.00000000E+00  0.00000000E+00  0.00000000E+00  0.00000000E+00  0.00000000E+00
  0.00000000E+00  0.00000000E+00  0.00000000E+00  0.00000000E+00  0.00000000E+00
  0.00000000E+00  0.00000000E+00  0.00000000E+00
Constraint Structure                       R   N=           3
  0.00000000E+00  0.00000000E+00  0.00000000E+00
Num ILSW                                   I              100
ILSW                                       I   N=         100
           0           0           0           0           2           1
           0           0           0           0           0          -1
           5           0           0           0           0           0
           0           0           1           0           0           0
           1           1           0           0           0           0
           0           0      100000           0          -1           0
           0           0           0           0           0           0
           0           0           0           1           0           0
           0           0           1           0           0           0
           0           0           4          41           0           0
           0           0           0           0           0           0
           0           0           0           0           0           0
           0           0           0           0           0           0
           0           0           0           0           0           0
           0           0           0           0           0           0
           0           0           0           0           0           0
           0           0           0           0
Num RLSW                                   I               41
RLSW                                       R   N=          41
  1.00000000E+00  1.00000000E+00  1.00000000E+00  1.00000000E+00  1.00000000E+00
  0.00000000E+00  0.00000000E+00  1.00000000E+00  0.00000000E+00  0.00000000E+00
  0.00000000E+00  0.00000000E+00  1.00000000E+00  0.00000000E+00  0.00000000E+00
  0.00000000E+00  0.00000000E+00  1.00000000E+00  0.00000000E+00  0.00000000E+00
  0.00000000E+00  0.00000000E+00  1.00000000E+00  0.00000000E+00  0.00000000E+00
  0.00000000E+00  0.00000000E+00  1.00000000E+00  0.00000000E+00  0.00000000E+00
  0.00000000E+00  0.00000000E+00  1.00000000E+00  0.00000000E+00  0.00000000E+00
  0.00000000E+00  0.00000000E+00  0.00000000E+00  1.00000000E+00  1.00000000E+00
  0.00000000E+00
MxBond                                     I                1
NBond                                      I   N=           1
           0
IBond                                      I   N=           1
           0
RBond                                      R   N=           1
  0.00000000E+00
Virial Ratio                               R      2.000378867633630E+00
SCF Energy                                 R     -2.751974871493388E+03
Total Energy                               R     -2.751974871493388E+03
RMS Density                                R      1.047839712069252E-10
External E-field                           R   N=          35
  0.00000000E+00  0.00000000E+00  0.00000000E+00  0.00000000E+00  0.00000000E+00
  0.00000000E+00  0.00000000E+00  0.00000000E+00  0.00000000E+00  0.00000000E+00
  0.00000000E+00  0.00000000E+00  0.00000000E+00  0.00000000E+00  0.00000000E+00
  0.00000000E+00  0.00000000E+00  0.00000000E+00  0.00000000E+00  0.00000000E+00
  0.00000000E+00  0.00000000E+00  0.00000000E+00  0.00000000E+00  0.00000000E+00
  0.00000000E+00  0.00000000E+00  0.00000000E+00  0.00000000E+00  0.00000000E+00
  0.00000000E+00  0.00000000E+00  0.00000000E+00  0.00000000E+00  0.00000000E+00
IOpCl                                      I                0
IROHF                                      I                0
Alpha Orbital Energies                     R   N=          27
 -5.20213728E+02 -6.99464874E+01 -6.30548517E+01 -6.30548517E+01 -6.30548517E+01
 -1.08663820E+01 -8.34867963E+00 -8.34867963E+00 -8.34867963E+00 -3.83604551E+00
 -3.83604551E+00 -3.83604551E+00 -3.83604551E+00 -3.83604551E+00 -1.15053474E+00
 -5.20650853E-01 -5.20650853E-01 -5.20650853E-01  7.23730808E-01  7.73455758E-01
  7.73455758E-01  7.73455758E-01  8.56049189E-01  8.56049189E-01  8.56049189E-01
  8.56049189E-01  8.56049189E-01
Alpha MO coefficients                      R   N=         729
  1.00414622E+00 -1.35912143E-02 -1.81597224E-03  3.28775734E-04 -1.72080824E-04
  3.24892746E-16  7.11260477E-17 -3.37915856E-16 -7.79284047E-17 -8.47129329E-17
 -1.76699585E-16  1.94005859E-16  2.67012853E-16 -2.99705643E-17 -6.27441424E-17
 -3.48359674E-16 -2.69863678E-16  1.22182458E-16 -1.19417224E-16 -1.05325523E-16
 -1.12433718E-16 -1.44448254E-16 -3.42606965E-16  6.71152605E-16  1.08268864E-16
  1.60178312E-16  5.73714874E-16 -3.14930864E-01  1.06029842E+00 -1.98325749E-02
  2.92653115E-03 -1.53619668E-03  4.28267972E-16  7.43680220E-16  3.37441595E-15
  3.41227408E-17  4.17805145E-17 -5.66584534E-16 -1.61966527E-15  1.93340981E-17
 -1.19317952E-15  1.32402988E-15 -1.12519429E-16  8.84766748E-16  3.30976627E-17
  1.21791894E-16  1.97190367E-16 -7.52029930E-17 -1.91236251E-17 -1.23111616E-16
  5.87938455E-17 -5.55810068E-16  3.10037595E-16  2.88883611E-16  5.33849853E-17
 -1.67803302E-16 -8.42156111E-18  2.92856167E-17 -1.29424646E-17 -3.24255646E-01
  9.43567523E-01 -9.03818343E-02  1.56021831E-03 -4.54015635E-03  4.34889553E-04
  2.13144073E-04 -6.20238469E-04  5.94110004E-05 -6.43269010E-05  1.87188027E-04
 -1.79302454E-05  8.30315369E-17  2.64632048E-16 -2.65573197E-17  6.35700429E-17
  1.58404825E-16 -5.21092171E-17 -4.81099846E-17 -1.98863871E-16 -1.12940412E-17
 -3.36532180E-17 -2.01512993E-16  4.73517537E-16  3.49419267E-16 -1.43885304E-16
  2.81824471E-17  8.83453450E-01  2.66219932E-01 -3.90214325E-01 -4.25090594E-03
 -1.28096833E-03  1.87759117E-03 -5.80723479E-04 -1.74995259E-04  2.56500918E-04
  1.75262400E-04  5.28135854E-05 -7.74120007E-05 -4.44160239E-17 -6.06808949E-16
 -6.50439209E-17 -2.14821218E-16 -3.84034154E-17 -1.77915490E-17 -1.73353266E-16
 -3.01119306E-16  2.92250902E-16  1.24409017E-16  8.66898809E-16 -2.92678320E-15
 -4.03836124E-16  4.02280799E-16 -9.23148700E-17  3.43509168E-01  2.06003755E-01
  9.18256051E-01 -1.65286033E-03 -9.91226632E-04 -4.41836534E-03 -2.25800057E-04
 -1.35413153E-04 -6.03600392E-04  6.81464781E-05  4.08677023E-05  1.82166654E-04
 -2.42976052E-16 -2.68023566E-16 -2.21902159E-16  1.56570452E-16 -3.08444594E-17
  4.51152406E-16  1.06543672E-16  4.34689831E-16 -6.50220557E-16  2.97401758E-16
  1.26657406E-01 -4.36176694E-01  1.08464629E+00  3.48695127E-02 -1.02233892E-02
  2.25048530E-16  5.38971684E-16  1.40450169E-15 -1.02209134E-15 -1.49906117E-15
 -4.22580473E-15 -9.46746142E-16  5.47823477E-16 -8.49320712E-16  4.78091472E-17
 -9.85040132E-16 -7.02143709E-16  2.17341728E-16  2.02230319E-16  4.09619037E-16
  1.27163133E-16 -4.30181896E-16  3.26193502E-17 -2.61944440E-16  2.23705252E-16
 -2.62374732E-16  4.81889787E-17  2.51973674E-16 -6.45848768E-16  2.72918760E-15
  1.57820581E-15 -6.79827221E-16 -7.72828242E-02 -4.93546182E-02 -3.98920370E-01
  2.03844477E-01  1.30179848E-01  1.05220940E+00  2.20849027E-03  1.41039351E-03
  1.13998390E-02 -1.13725585E-04 -7.26278174E-05 -5.87031505E-04 -2.11764841E-15
 -1.88427206E-15 -3.58543181E-15 -3.58256518E-16  2.47301269E-15  1.73436395E-16
 -2.44192609E-17  5.11908510E-16 -8.30882233E-17 -2.54553460E-16  1.65838843E-16
 -6.04452489E-16  1.37313372E-15 -4.61078446E-16  2.49003376E-16 -2.66454604E-01
 -2.97860181E-01  8.84716411E-02  7.02812040E-01  7.85648733E-01 -2.33356579E-01
  7.61440082E-03  8.51186947E-03 -2.52823005E-03 -3.92101429E-04 -4.38316325E-04
  1.30190496E-04  1.31741187E-15 -1.08407130E-15  1.46713054E-15 -1.42022737E-15
  4.57405509E-16 -1.00062822E-16  3.08826181E-16  9.79125218E-17 -8.48628867E-17
  5.80590089E-16 -1.31440086E-17  7.25990058E-18 -1.02668201E-16 -5.13534265E-16
  2.91390464E-16 -3.00957279E-01  2.76386340E-01  2.41097897E-02  7.93817771E-01
 -7.29008411E-01 -6.35930109E-02  8.60037440E-03 -7.89821734E-03 -6.88978911E-04
 -4.42873861E-04  4.06716481E-04  3.54787753E-05  6.26473844E-16  6.35016077E-16
  1.78222409E-15  4.79853367E-16 -3.25147765E-15  1.10009282E-16  3.20158558E-17
 -2.09433603E-17  2.72559413E-16  5.80910040E-16  1.03209612E-17  5.44592405E-18
  1.97759759E-16  9.90298151E-17 -7.64924906E-16 -3.41969346E-16 -2.36809665E-16
  1.01177803E-16  8.14974541E-16  5.69861403E-16 -2.76636074E-16 -2.22135664E-16
  2.16165153E-16 -2.81324824E-16 -2.33475775E-16  1.49735139E-16  5.32327166E-17
  1.57756806E-01 -2.14211384E-01 -2.01855211E-01  9.30094895E-01 -1.32630382E-01
  1.71232225E-03 -2.32509092E-03 -2.19097468E-03  1.00954261E-02 -1.43959528E-03
  1.10199619E-17 -9.40839606E-18  1.86574801E-16  6.20898575E-17 -6.37205365E-16
  4.13906347E-17  1.46323063E-16 -1.53726420E-16 -2.34546903E-16 -4.55769116E-16
  4.31662816E-16 -7.48396048E-16 -1.86466901E-16 -2.42907870E-16  5.75103424E-16
  7.64069864E-16 -1.62529693E-16  8.59832127E-01 -1.27931267E-02 -4.34026335E-01
 -2.51130536E-01 -5.71509202E-02  9.33278073E-03 -1.38859020E-04 -4.71100403E-03
 -2.72581839E-03 -6.20326910E-04 -7.94127033E-18  5.47131782E-17 -4.94615878E-17
  4.34898205E-16 -2.00242258E-16 -5.56523587E-16 -4.47695310E-16  1.06874453E-17
  1.59876664E-15  1.13938591E-15 -2.22204779E-17 -1.05390277E-15 -7.01437079E-17
  1.84465185E-16  2.25584129E-16  9.52739862E-16 -2.64732273E-16 -1.70329289E-01
  8.69167269E-01 -4.06956154E-01  1.15759956E-01 -1.75240116E-01 -1.84878636E-03
  9.43410612E-03 -4.41717915E-03  1.25648049E-03 -1.90208940E-03 -3.94372406E-18
  6.67807594E-17  2.59401408E-17  6.22338991E-16 -5.05617044E-16  1.02420971E-16
  3.33606826E-16 -1.93463827E-16 -1.52767741E-16 -8.85857080E-16  6.44833673E-16
  6.32144208E-16 -7.43397433E-17  5.38268531E-16 -9.16347522E-16 -4.75850333E-16
  2.58077146E-17  2.87815393E-01  3.43242923E-01  3.30037192E-01  2.15767469E-01
  7.98782217E-01  3.12400278E-03  3.72562368E-03  3.58228618E-03  2.34198097E-03
  8.67013345E-03 -8.58372893E-17  3.90956042E-16 -9.64501346E-16  2.92993465E-16
 -4.23184555E-16  1.00982532E-15 -8.92913616E-16 -1.95733043E-15 -2.40882694E-15
  2.52328132E-15  5.47082662E-15  8.71049744E-16  7.46555383E-16 -1.46865247E-16
  2.63740427E-17 -3.98658704E-16  1.71572109E-16  3.43712554E-01  2.73621926E-01
  7.00374428E-01  7.80227972E-02 -5.51876263E-01  3.73072115E-03  2.96994420E-03
  7.60199667E-03  8.46874215E-04 -5.99016946E-03 -4.03062199E-02  1.40227514E-01
 -3.93280539E-01  5.56498304E-01  5.36899319E-01  1.08663301E-16 -3.46787909E-16
  4.89756750E-16 -7.79390576E-17  8.07477755E-16 -8.96077167E-16  6.55272184E-16
 -2.16089774E-15  1.01644061E-15 -1.23032475E-15 -1.69285061E-15 -1.03165879E-15
  2.52874655E-16 -2.00395180E-16 -2.09136342E-18  1.81279607E-16 -9.39372448E-17
  1.52203352E-16 -2.35077709E-16 -4.64708535E-16 -2.32089724E-16 -2.78297139E-16
 -1.19185426E-16  4.83600958E-16 -1.02081846E-15  2.27474189E-15  6.74832029E-16
 -1.12053327E-02  1.08367192E-01 -2.69716569E-02  2.49927064E-02 -2.41705399E-01
  6.01583834E-02 -5.96942082E-02  5.77304920E-01 -1.43686202E-01 -5.21764272E-02
  5.04600179E-01 -1.25590621E-01  3.37548849E-17 -3.59077574E-17 -2.17567570E-16
 -9.63735595E-17  6.08421484E-16 -2.89198701E-16  8.35013323E-17  1.29951773E-15
  5.42322130E-16 -1.11680118E-15 -7.63210154E-17  8.56390077E-16  4.54294282E-16
  6.59005188E-15 -6.64985855E-15  1.01926993E-01 -1.15065274E-03 -4.69685226E-02
 -2.27340988E-01  2.56644999E-03  1.04759986E-01  5.42996026E-01 -6.12987635E-03
 -2.50215575E-01  4.74612085E-01 -5.35789077E-03 -2.18703876E-01  2.65480727E-16
  1.05788997E-16 -3.91520667E-16  2.17071506E-17  2.80589351E-16 -8.75206989E-16
  1.14519164E-15  4.14474905E-16 -3.13588715E-16  5.44983871E-17  3.70885697E-17
  1.47780523E-15  2.60372783E-15  1.76018466E-14 -1.68478909E-14  4.56268192E-02
  2.91839982E-02  9.83003846E-02 -1.01767411E-01 -6.50928553E-02 -2.19252093E-01
  2.43067914E-01  1.55472016E-01  5.23675983E-01  2.12456379E-01  1.35892150E-01
  4.57725173E-01  1.57380841E-16 -7.51567753E-17 -8.86471715E-16  1.44665639E-16
 -2.64775838E-17 -6.60417811E-16  5.07404179E-17  2.52348662E-15 -4.41885028E-16
 -5.03306261E-17  2.17335615E-02 -2.56407026E-01 -1.54326307E-01 -1.98694166E+00
  2.04985616E+00 -1.40066122E-15  6.97702527E-15  1.28753161E-16  1.41107650E-15
 -1.02050621E-14 -9.43547391E-16 -1.67629903E-14  6.56570097E-14 -3.29521290E-15
  2.35940860E-14 -6.25587463E-14  1.15769237E-14  2.56588180E-15  1.29196132E-16
  1.59033276E-15 -2.31483882E-15  2.84462017E-16 -8.84986115E-15  8.56558576E-16
 -5.65493472E-15  8.54025513E-15 -1.44306580E-16 -3.46469387E-16  3.70133536E-15
  2.17687830E-15  2.76547593E-14 -2.91119452E-14  2.73533423E-02  5.65206976E-02
  1.13986816E-01 -3.90534912E-02 -8.06969235E-02 -1.62743663E-01  2.63366814E-01
  5.44199532E-01  1.09750188E+00 -2.61850778E-01 -5.41066919E-01 -1.09118426E+00
 -3.71275382E-15 -1.01144083E-15 -1.14488536E-14  7.91903896E-15 -1.97054654E-15
  1.34403988E-14  3.35071018E-15  4.14926918E-14 -2.89288137E-14  7.03004519E-15
 -1.17373386E-15  1.35448602E-14  7.75262581E-15  1.04506378E-13 -1.06783136E-13
 -6.17245448E-02  1.07846880E-01 -3.86641933E-02  8.81266701E-02 -1.53977424E-01
  5.52024583E-02 -5.94303854E-01  1.03838459E+00 -3.72271341E-01  5.90882822E-01
 -1.03240727E+00  3.70128411E-01  6.93346558E-16 -6.94122618E-16 -1.71983780E-15
 -1.02311045E-15  4.29320494E-15 -2.76232629E-15  3.01638533E-15  7.04913342E-15
  3.71337314E-15 -1.51614756E-14 -1.69260604E-16  1.85435635E-15  9.73505705E-16
  1.38802135E-14 -1.45096957E-14  1.11254951E-01  4.59374577E-02 -4.94760017E-02
 -1.58843267E-01 -6.55867969E-02  7.06389216E-02  1.07119860E+00  4.42300680E-01
 -4.76370924E-01 -1.06503238E+00 -4.39754635E-01  4.73628758E-01  8.74788414E-16
 -2.71638946E-15 -8.39438540E-15  2.54062808E-15  5.71761178E-16 -2.40093191E-15
  9.89503161E-15  3.00167025E-14 -9.02642307E-15 -1.80788390E-15  4.63586130E-16
 -1.38370844E-15 -8.63349229E-16 -1.01707860E-14  1.05631182E-14 -1.58374311E-15
 -2.57268770E-15 -1.53059310E-15  2.69594547E-15  3.95978767E-15  2.58748233E-15
 -1.82031517E-14 -2.55077559E-14 -1.70060454E-14  1.78645743E-14  2.38156762E-14
  1.58667020E-14 -1.36318921E-01  7.42591080E-02 -2.07396788E-01 -1.15537220E-01
  1.52158880E-02  4.97507089E-01 -2.71014708E-01  7.56911596E-01  4.21662565E-01
 -5.55316317E-02 -1.05586565E-16  2.35394162E-15  1.83259215E-15  1.90246010E-14
 -1.97873255E-14  3.87300718E-15  3.72051462E-15  4.13193297E-15 -5.60554482E-15
 -5.37387008E-15 -5.81997034E-15  3.65731886E-14  3.53881435E-14  3.89355893E-14
 -3.50998228E-14 -3.41668839E-14 -3.64319933E-14  1.30730729E-02  2.83590001E-02
  1.38287844E-01 -2.46102701E-01 -5.08508680E-03 -4.77112523E-02 -1.03498498E-01
 -5.04692834E-01  8.98172001E-01  1.85584415E-02 -3.30266418E-17  7.97935459E-17
  1.47183312E-16  5.59337642E-16 -8.35769927E-16 -1.40456367E-15 -9.37628873E-16
 -3.36035932E-16  2.15840479E-15  1.35690221E-15  2.18235286E-16 -1.35238977E-14
 -9.14917520E-15 -1.89772078E-15  1.20378089E-14  8.86378059E-15  1.96032373E-15
 -4.42686984E-02 -2.64913953E-01 -4.02186016E-02 -5.41707166E-02 -6.32450871E-02
  1.61562247E-01  9.66825208E-01  1.46781086E-01  1.97700475E-01  2.30818135E-01
  1.87331054E-17 -2.81896102E-16 -2.34880267E-16 -2.27765294E-15  2.43221399E-15
 -5.97755140E-16  1.48744814E-15 -1.69483321E-15  7.70588831E-16 -2.19006419E-15
  2.37982749E-15 -6.29675190E-15  1.38737816E-14 -1.59681689E-14  7.09659886E-15
 -1.30972937E-14  1.54680936E-14 -1.18513117E-02  6.45642575E-02  2.80822182E-03
  1.40911420E-02 -2.75999312E-01  4.32523343E-02 -2.35632555E-01 -1.02488359E-02
 -5.14267791E-02  1.00728214E+00  1.64004108E-16 -1.76883876E-15 -8.88499649E-16
 -1.35260861E-14  1.35781409E-14  1.33229944E-15  1.40904566E-15 -5.79672579E-16
 -1.97488260E-15 -2.08721158E-15  7.05280070E-16  1.24481325E-14  1.31701043E-14
 -6.24604051E-15 -1.11817568E-14 -1.19824951E-14  7.16814610E-15 -2.44616310E-01
  4.94669598E-03  1.30110284E-01  6.03543538E-02  1.60661422E-02  8.92747293E-01
 -1.80533728E-02 -4.74848158E-01 -2.20268166E-01 -5.86347040E-02
Total SCF Density                          R   N=         378
  2.25031556E+00 -8.16930626E-01  2.66866263E+00  3.15305052E-01 -1.09849990E+00
  2.66304757E+00 -3.72107541E-02  1.31851266E-01 -3.62195006E-01  6.21829835E-01
 -4.52484971E-02  1.56241546E-01 -4.44420071E-01  5.96845047E-01  5.76735572E-01
  5.06963665E-16  3.84405977E-16 -8.74176152E-18  3.35204986E-15 -3.00574492E-15
  2.36754545E+00  3.51085619E-17  3.54223455E-16  2.01499773E-16  1.14066771E-15
 -1.17513656E-15  4.13972530E-16  2.36754545E+00 -8.99496453E-16  9.55491990E-16
  1.00952931E-16  2.86164207E-15 -1.82579975E-15 -2.97810008E-15  4.02445259E-16
  2.36754545E+00 -9.54480675E-17 -8.18038216E-16 -6.64087528E-17 -7.44314598E-15
  6.95905879E-15 -9.49702269E-01 -2.64388375E-15  2.05417348E-15  2.45666478E+00
 -2.45213015E-16  8.09034144E-17 -7.13698221E-16 -2.12849524E-15  2.52025567E-15
 -3.34875238E-15 -9.49702269E-01  1.82365939E-15  5.38043036E-15  2.45666478E+00
 -5.96652907E-16  7.77525500E-16 -4.48802992E-15 -3.76187109E-15  3.61878057E-15
  8.56077565E-16  6.57843903E-16 -9.49702269E-01 -2.06913886E-15 -2.64995105E-15
  2.45666478E+00  1.06979090E-15 -8.50781155E-16 -5.93669135E-16  1.60871065E-14
 -1.47589215E-14  1.23315252E-01  1.33888465E-15 -8.68235876E-16 -2.74083159E-01
 -4.97038933E-16 -2.91670713E-16  7.15254700E-01  7.15395725E-16 -5.41939681E-17
  2.54442149E-15  5.65687725E-15 -6.71202979E-15  9.85592291E-16  1.23315252E-01
  6.60368909E-16  2.15349657E-17 -2.74083159E-01 -7.94042566E-17  3.05534948E-16
  7.15254700E-01  5.09334901E-16 -5.31142539E-16  2.54638901E-16  1.55872897E-14
 -1.34163448E-14  1.99557574E-16  3.39809290E-16  1.23315252E-01 -2.00021748E-16
 -4.00212903E-16 -2.74083159E-01  3.06587980E-15  2.92773889E-15  7.15254700E-01
 -8.93058169E-16  3.81346433E-15  2.66171913E-15  1.21394632E-14 -1.48679556E-14
  1.18199603E-01 -1.05942392E-15  9.71018242E-16 -2.62950442E-01 -2.99612494E-16
 -8.26954878E-16  6.24922518E-01  7.20249056E-16  8.48930301E-16  5.46234252E-01
 -8.51304018E-16  1.03629075E-15 -1.12869058E-15  5.05502384E-15 -5.62375920E-15
  7.88048114E-16  1.18199603E-01 -7.98648731E-16 -5.59736312E-16 -2.62950442E-01
  2.08092278E-16  7.51209804E-16  6.24922518E-01 -1.67207014E-15  1.05089684E-15
  5.46234252E-01 -1.09657994E-15  3.06301460E-15  1.69242048E-15  1.14656642E-14
 -1.37794296E-14  1.19262239E-16 -2.00164050E-16  1.18199603E-01  2.37026924E-16
  8.36123163E-17 -2.62950442E-01 -5.13396834E-16  2.31254902E-15  6.24922518E-01
 -2.02495085E-15 -1.66614091E-15  5.46234252E-01  2.22837655E-16  2.22281286E-16
  2.28207816E-17  8.46395604E-16 -1.58391691E-15 -7.73569116E-17 -2.73009954E-16
 -1.62487920E-16 -6.01224363E-16  8.02212139E-16 -3.63654161E-16  3.47077399E-16
  3.33038075E-16 -3.93684270E-16  6.43310891E-16  5.62329090E-16 -1.74573134E-17
  1.98837317E+00 -3.17344001E-16  3.81709127E-16 -9.35666106E-17  1.09124760E-15
 -8.02409303E-16 -1.12473161E-15  2.96126158E-16  2.80979354E-17 -2.98596810E-16
 -5.71607007E-16  1.64000825E-17 -7.37418240E-16  4.77720296E-17  5.76898530E-16
 -6.45118442E-17  9.71608417E-16 -4.71326440E-16 -1.01725269E-16  1.98837317E+00
 -3.61904683E-16  6.16253357E-16 -6.52649296E-16  4.00678313E-16  8.72047820E-17
  3.30810790E-16 -5.06660317E-16 -5.71205402E-17 -1.12288107E-15  1.18066663E-15
 -3.30493909E-16  2.44166118E-15  5.93129159E-16 -4.37517445E-16 -1.88405674E-15
 -2.82732004E-15  1.14574357E-17  4.19098350E-16  9.50032154E-16  1.98837317E+00
 -1.64104285E-16 -9.91611074E-17  2.60055822E-16  7.78115606E-16 -1.24112216E-15
 -3.54032457E-16  5.91246013E-16  4.11952146E-16  1.38990743E-16 -1.43275611E-15
  1.70686814E-16  2.18047804E-16  4.64568833E-16  1.71652858E-17 -9.69414368E-16
 -2.08677200E-16  3.04593955E-16  7.91105056E-16 -1.24919741E-15 -9.34162144E-16
  1.98837317E+00 -2.92219351E-16 -3.20788162E-17  1.91543560E-16  3.50286213E-16
 -8.67109054E-17  5.10545370E-16 -1.96958920E-16 -3.30288334E-16 -1.93687139E-15
  1.11410220E-15  5.71742106E-16  7.43601583E-16 -1.97451485E-16  7.75356652E-16
 -1.38237905E-15 -1.80687030E-16 -3.53724338E-16 -1.39994895E-15  5.67308787E-17
 -2.44834535E-15 -6.52344118E-16  1.98837317E+00 -6.14912912E-16 -2.34551544E-16
 -4.55205770E-17  1.76695342E-16  1.43175304E-16  5.02433790E-17  8.11530373E-17
  6.50676241E-16  5.94686133E-16 -4.90333468E-17  5.17061329E-16 -1.23644860E-15
 -5.28913064E-16 -1.70764852E-16 -1.07763295E-15 -4.56500527E-16 -1.49600100E-16
  2.15821789E-02 -1.23586046E-15  3.32359635E-16  2.64959688E-16 -3.98137249E-16
  2.34257057E-04  1.26269435E-15  2.72843342E-16 -3.95541240E-16 -2.65017449E-16
 -2.53807183E-16 -1.47924163E-16 -2.94840450E-16  2.99927653E-16 -3.99177858E-17
  4.19159196E-16  6.45575476E-17  1.25488503E-15  1.04527002E-16 -5.38333565E-16
  1.09809628E-15  9.66739885E-17 -4.79246611E-16 -2.68566619E-17  2.15821789E-02
 -9.15289403E-16 -4.49222706E-16  5.06151949E-16 -1.36937898E-17  2.34257057E-04
  6.60235949E-16 -1.50106798E-15  8.55790910E-16 -5.00747574E-16 -5.00839036E-16
  8.46185871E-17 -5.65352975E-17  1.03400614E-15 -3.76738620E-16 -6.11465510E-16
  2.50866411E-16  1.56029475E-15  2.29594106E-15  2.07613457E-15  1.31733480E-15
  1.96688591E-15  1.80848313E-15  4.19471468E-16 -1.00345791E-15  2.15821789E-02
  4.77920023E-16 -1.08870331E-15  8.11114118E-18 -2.09383798E-17  2.34257057E-04
  7.86144882E-17  8.18177183E-16 -3.98154877E-16 -2.68527682E-16 -2.60419530E-16
 -1.51742099E-16  1.61632091E-16 -1.44374501E-15  5.55781237E-16 -7.40999502E-16
  3.45296508E-17 -6.15756981E-16  4.92837885E-16 -4.64255243E-16 -5.53692044E-16
  4.29204244E-16 -4.02058671E-16  5.44913871E-16 -4.06564009E-16  7.30251880E-16
  2.15821789E-02 -7.96249616E-17  8.69731735E-18 -9.14170234E-18  1.32237841E-17
  2.34257057E-04  1.00581851E-15  4.73185120E-16  3.21283539E-16 -2.99050243E-16
 -3.00848379E-16 -1.49477256E-16 -1.00794146E-16  8.54191741E-16  1.58015325E-15
  4.94130267E-16 -1.03762642E-15  1.91570078E-16 -1.31623791E-15  2.42614962E-16
  1.28957857E-16 -1.14979259E-15  2.10635342E-16 -3.83400570E-16 -1.91060987E-17
  3.81807724E-16  1.53284376E-16  2.15821789E-02 -8.31802567E-18  5.27981113E-18
 -7.38434059E-18  8.76370562E-19  2.34257057E-04
Mulliken Charges                           R   N=           1
  2.13162821E-14
ONIOM Charges                              I   N=          16
           0           0           0           0           0           0
           0           0           0           0           0           0
           0           0           0           0
ONIOM Multiplicities                       I   N=          16
           1           0           0           0           0           0
           0           0           0           0           0           0
           0           0           0           0
Atom Layers                                I   N=           1
           1
Atom Modifiers                             I   N=           1
           0
Force Field                                I                0
Int Atom Modified Types                    I   N=           1
           0
Link Atoms                                 I   N=           1
           0
Atom Modified MM Charges                   R   N=           1
  0.00000000E+00
Link Distances                             R   N=           4
  0.00000000E+00  0.00000000E+00  0.00000000E+00  0.00000000E+00
Cartesian Gradient                         R   N=           3
  0.00000000E+00  0.00000000E+00  0.00000000E+00
Dipole Moment                              R   N=           3
  2.20207827E-14  3.57735210E-15  8.64673829E-15
Quadrupole Moment                          R   N=           6
  1.24344979E-14 -1.77635684E-15 -5.32907052E-15 -4.79884555E-15  4.53864177E-15
  3.25806694E-15
QEq coupling tensors                       R   N=           6
  0.00000000E+00 -2.53330451E-13  0.00000000E+00 -4.91232430E-12  7.47516619E-14
 -3.88051073E-11
ETran NETS                                 I               20