methane_q+0 ub3lyp/aug-cc-pvdz opt-stable-freq                          
Freq      UB3LYP                                                      Gen                 
Number of atoms                            I                5
Info1-9                                    I   N=           9
          10           4           0           0           0         101
           6          18        -502
Charge                                     I                0
Multiplicity                               I                1
Number of electrons                        I               10
Number of alpha electrons                  I                5
Number of beta electrons                   I                5
Number of basis functions                  I               59
Number of independent functions            I               59
Number of point charges in /Mol/           I                0
Number of translation vectors              I                0
Atomic numbers                             I   N=           5
           6           1           1           1           1
Nuclear charges                            R   N=           5
  6.00000000E+00  1.00000000E+00  1.00000000E+00  1.00000000E+00  1.00000000E+00
Current cartesian coordinates              R   N=          15
 -4.12233783E-05  3.45303905E-05  2.63749768E-06  1.05160716E+00  1.51746666E+00
  9.42259460E-01  1.29678559E+00 -1.54367104E+00 -4.81272120E-01 -1.47688144E+00
 -7.08835696E-01  1.26998726E+00 -8.71677956E-01  7.35175626E-01 -1.73095834E+00
Force Field                                I                0
Int Atom Types                             I   N=           5
           0           0           0           0           0
MM charges                                 R   N=           5
  0.00000000E+00  0.00000000E+00  0.00000000E+00  0.00000000E+00  0.00000000E+00
Integer atomic weights                     I   N=           5
          12           1           1           1           1
Real atomic weights                        R   N=           5
  1.20000000E+01  1.00782504E+00  1.00782504E+00  1.00782504E+00  1.00782504E+00
Atom fragment info                         I   N=           5
           0           0           0           0           0
Atom residue num                           I   N=           5
           0           0           0           0           0
Nuclear spins                              I   N=           5
           0           1           1           1           1
Nuclear ZEff                               R   N=           5
 -3.60000000E+00 -1.00000000E+00 -1.00000000E+00 -1.00000000E+00 -1.00000000E+00
Nuclear ZNuc                               R   N=           5
  6.00000000E+00  1.00000000E+00  1.00000000E+00  1.00000000E+00  1.00000000E+00
Nuclear QMom                               R   N=           5
  0.00000000E+00  0.00000000E+00  0.00000000E+00  0.00000000E+00  0.00000000E+00
Nuclear GFac                               R   N=           5
  0.00000000E+00  2.79284600E+00  2.79284600E+00  2.79284600E+00  2.79284600E+00
MicOpt                                     I   N=           5
          -1          -1          -1          -1          -1
Number of contracted shells                I               29
Number of primitive shells                 I               51
Pure/Cartesian d shells                    I                0
Pure/Cartesian f shells                    I                0
Highest angular momentum                   I                2
Largest degree of contraction              I                7
Shell types                                I   N=          29
           0           0           0           0           1           1
           1          -2          -2           0           0           0
           1           1           0           0           0           1
           1           0           0           0           1           1
           0           0           0           1           1
Number of primitives per shell             I   N=          29
           7           7           1           1           3           1
           1           1           1           3           1           1
           1           1           3           1           1           1
           1           3           1           1           1           1
           3           1           1           1           1
Shell to atom map                          I   N=          29
           1           1           1           1           1           1
           1           1           1           2           2           2
           2           2           3           3           3           3
           3           4           4           4           4           4
           5           5           5           5           5
Primitive exponents                        R   N=          51
  6.66500000E+03  1.00000000E+03  2.28000000E+02  6.47100000E+01  2.10600000E+01
  7.49500000E+00  2.79700000E+00  6.66500000E+03  2.28000000E+02  6.47100000E+01
  2.10600000E+01  7.49500000E+00  2.79700000E+00  5.21500000E-01  1.59600000E-01
  4.69000000E-02  9.43900000E+00  2.00200000E+00  5.45600000E-01  1.51700000E-01
  4.04100000E-02  5.50000000E-01  1.51000000E-01  1.30100000E+01  1.96200000E+00
  4.44600000E-01  1.22000000E-01  2.97400000E-02  7.27000000E-01  1.41000000E-01
  1.30100000E+01  1.96200000E+00  4.44600000E-01  1.22000000E-01  2.97400000E-02
  7.27000000E-01  1.41000000E-01  1.30100000E+01  1.96200000E+00  4.44600000E-01
  1.22000000E-01  2.97400000E-02  7.27000000E-01  1.41000000E-01  1.30100000E+01
  1.96200000E+00  4.44600000E-01  1.22000000E-01  2.97400000E-02  7.27000000E-01
  1.41000000E-01
Contraction coefficients                   R   N=          51
  6.93516317E-04  5.34150243E-03  2.71366714E-02  1.01992385E-01  2.75508636E-01
  4.51086433E-01  2.87565745E-01  7.73354740E-06  2.78072137E-04 -2.57875654E-03
 -8.95087684E-03 -1.06058855E-01 -1.31517686E-01  1.09948660E+00  1.00000000E+00
  1.00000000E+00  5.69792516E-02  3.13207212E-01  7.60376742E-01  1.00000000E+00
  1.00000000E+00  1.00000000E+00  1.00000000E+00  3.34987264E-02  2.34800801E-01
  8.13682958E-01  1.00000000E+00  1.00000000E+00  1.00000000E+00  1.00000000E+00
  3.34987264E-02  2.34800801E-01  8.13682958E-01  1.00000000E+00  1.00000000E+00
  1.00000000E+00  1.00000000E+00  3.34987264E-02  2.34800801E-01  8.13682958E-01
  1.00000000E+00  1.00000000E+00  1.00000000E+00  1.00000000E+00  3.34987264E-02
  2.34800801E-01  8.13682958E-01  1.00000000E+00  1.00000000E+00  1.00000000E+00
  1.00000000E+00
Coordinates of each shell                  R   N=          87
 -4.12233783E-05  3.45303905E-05  2.63749768E-06 -4.12233783E-05  3.45303905E-05
  2.63749768E-06 -4.12233783E-05  3.45303905E-05  2.63749768E-06 -4.12233783E-05
  3.45303905E-05  2.63749768E-06 -4.12233783E-05  3.45303905E-05  2.63749768E-06
 -4.12233783E-05  3.45303905E-05  2.63749768E-06 -4.12233783E-05  3.45303905E-05
  2.63749768E-06 -4.12233783E-05  3.45303905E-05  2.63749768E-06 -4.12233783E-05
  3.45303905E-05  2.63749768E-06  1.05160716E+00  1.51746666E+00  9.42259460E-01
  1.05160716E+00  1.51746666E+00  9.42259460E-01  1.05160716E+00  1.51746666E+00
  9.42259460E-01  1.05160716E+00  1.51746666E+00  9.42259460E-01  1.05160716E+00
  1.51746666E+00  9.42259460E-01  1.29678559E+00 -1.54367104E+00 -4.81272120E-01
  1.29678559E+00 -1.54367104E+00 -4.81272120E-01  1.29678559E+00 -1.54367104E+00
 -4.81272120E-01  1.29678559E+00 -1.54367104E+00 -4.81272120E-01  1.29678559E+00
 -1.54367104E+00 -4.81272120E-01 -1.47688144E+00 -7.08835696E-01  1.26998726E+00
 -1.47688144E+00 -7.08835696E-01  1.26998726E+00 -1.47688144E+00 -7.08835696E-01
  1.26998726E+00 -1.47688144E+00 -7.08835696E-01  1.26998726E+00 -1.47688144E+00
 -7.08835696E-01  1.26998726E+00 -8.71677956E-01  7.35175626E-01 -1.73095834E+00
 -8.71677956E-01  7.35175626E-01 -1.73095834E+00 -8.71677956E-01  7.35175626E-01
 -1.73095834E+00 -8.71677956E-01  7.35175626E-01 -1.73095834E+00 -8.71677956E-01
  7.35175626E-01 -1.73095834E+00
Constraint Structure                       R   N=          15
 -4.12233783E-05  3.45303905E-05  2.63749768E-06  1.05160716E+00  1.51746666E+00
  9.42259460E-01  1.29678559E+00 -1.54367104E+00 -4.81272120E-01 -1.47688144E+00
 -7.08835696E-01  1.26998726E+00 -8.71677956E-01  7.35175626E-01 -1.73095834E+00
Num ILSW                                   I              100
ILSW                                       I   N=         100
           1           0           0           0           2           0
           0           0           0           0         402          -1
           5           0           0           0           2           0
           0           0           0           0           1           0
           1           1           0           0           0           0
           0           0      100000           0          -1           0
           0           0           0           0           0           0
           0           0           0           1           0           0
           0           0           1           0           0           0
           0           0           4          41           0           0
           0           0           5           0           0           0
           0           0           0           5           0           0
           0           0           0           0           0           0
           0           0           0           0           0           0
           0           0           0           0           0           0
           0           0           0           0           0           0
           0           0           0           0
Num RLSW                                   I               41
RLSW                                       R   N=          41
  8.00000000E-01  7.20000000E-01  1.00000000E+00  8.10000000E-01  2.00000000E-01
  0.00000000E+00  0.00000000E+00  1.00000000E+00  0.00000000E+00  0.00000000E+00
  0.00000000E+00  0.00000000E+00  1.00000000E+00  0.00000000E+00  0.00000000E+00
  0.00000000E+00  0.00000000E+00  1.00000000E+00  0.00000000E+00  0.00000000E+00
  0.00000000E+00  0.00000000E+00  1.00000000E+00  0.00000000E+00  0.00000000E+00
  0.00000000E+00  0.00000000E+00  1.00000000E+00  0.00000000E+00  0.00000000E+00
  0.00000000E+00  0.00000000E+00  1.00000000E+00  0.00000000E+00  0.00000000E+00
  0.00000000E+00  0.00000000E+00  0.00000000E+00  1.00000000E+00  1.00000000E+00
  0.00000000E+00
MxBond                                     I                4
NBond                                      I   N=           5
           4           1           1           1           1
IBond                                      I   N=          20
           2           3           4           5           1           0
           0           0           1           0           0           0
           1           0           0           0           1           0
           0           0
RBond                                      R   N=          20
  1.00000000E+00  1.00000000E+00  1.00000000E+00  1.00000000E+00  1.00000000E+00
  0.00000000E+00  0.00000000E+00  0.00000000E+00  1.00000000E+00  0.00000000E+00
  0.00000000E+00  0.00000000E+00  1.00000000E+00  0.00000000E+00  0.00000000E+00
  0.00000000E+00  1.00000000E+00  0.00000000E+00  0.00000000E+00  0.00000000E+00
Virial Ratio                               R      2.010071555987826E+00
SCF Energy                                 R     -4.052062174460268E+01
Total Energy                               R     -4.052062174460268E+01
S**2 after annihilation                    R     -2.753353101070391E-14
RMS Force                                  R      3.265202137153343E-07
RMS Density                                R      2.560725199187347E-10
External E-field                           R   N=          35
  0.00000000E+00  0.00000000E+00  0.00000000E+00  0.00000000E+00  0.00000000E+00
  0.00000000E+00  0.00000000E+00  0.00000000E+00  0.00000000E+00  0.00000000E+00
  0.00000000E+00  0.00000000E+00  0.00000000E+00  0.00000000E+00  0.00000000E+00
  0.00000000E+00  0.00000000E+00  0.00000000E+00  0.00000000E+00  0.00000000E+00
  0.00000000E+00  0.00000000E+00  0.00000000E+00  0.00000000E+00  0.00000000E+00
  0.00000000E+00  0.00000000E+00  0.00000000E+00  0.00000000E+00  0.00000000E+00
  0.00000000E+00  0.00000000E+00  0.00000000E+00  0.00000000E+00  0.00000000E+00
IOpCl                                      I                1
IROHF                                      I                0
Alpha Orbital Energies                     R   N=          59
 -1.01729718E+01 -6.95527033E-01 -3.93464323E-01 -3.93464192E-01 -3.93463558E-01
 -6.90704416E-03  3.14863765E-02  3.14891734E-02  3.14899326E-02  9.34373965E-02
  9.34394186E-02  9.34404126E-02  1.09241552E-01  1.72328568E-01  1.72329773E-01
  1.72330040E-01  2.01175229E-01  2.01175476E-01  3.02141148E-01  3.37001915E-01
  3.37004654E-01  3.37006235E-01  4.06721441E-01  4.06721468E-01  4.06721648E-01
  4.48918717E-01  4.72979847E-01  4.72980183E-01  4.72980414E-01  5.64611798E-01
  5.64612357E-01  5.64612489E-01  5.93036449E-01  5.93036700E-01  7.60121011E-01
  7.60121390E-01  7.60122524E-01  8.76278370E-01  1.12698732E+00  1.12698875E+00
  1.12698913E+00  1.50236956E+00  1.50237060E+00  1.62298474E+00  1.62298488E+00
  1.62298537E+00  1.75851114E+00  1.91232888E+00  1.91232930E+00  1.91232949E+00
  1.99538502E+00  1.99538548E+00  1.99538638E+00  2.32872177E+00  2.32872433E+00
  2.48308823E+00  2.56671128E+00  2.56671156E+00  2.56671306E+00
Beta Orbital Energies                      R   N=          59
 -1.01729718E+01 -6.95527033E-01 -3.93464323E-01 -3.93464192E-01 -3.93463558E-01
 -6.90704416E-03  3.14863765E-02  3.14891734E-02  3.14899326E-02  9.34373965E-02
  9.34394186E-02  9.34404126E-02  1.09241552E-01  1.72328568E-01  1.72329773E-01
  1.72330040E-01  2.01175229E-01  2.01175476E-01  3.02141148E-01  3.37001915E-01
  3.37004654E-01  3.37006235E-01  4.06721441E-01  4.06721468E-01  4.06721648E-01
  4.48918717E-01  4.72979847E-01  4.72980183E-01  4.72980414E-01  5.64611798E-01
  5.64612357E-01  5.64612489E-01  5.93036449E-01  5.93036700E-01  7.60121011E-01
  7.60121390E-01  7.60122524E-01  8.76278370E-01  1.12698732E+00  1.12698875E+00
  1.12698913E+00  1.50236956E+00  1.50237060E+00  1.62298474E+00  1.62298488E+00
  1.62298537E+00  1.75851114E+00  1.91232888E+00  1.91232930E+00  1.91232949E+00
  1.99538502E+00  1.99538548E+00  1.99538638E+00  2.32872177E+00  2.32872433E+00
  2.48308823E+00  2.56671128E+00  2.56671156E+00  2.56671306E+00
Alpha MO coefficients                      R   N=        3481
  9.97007951E-01  3.59185794E-02 -6.25222846E-02 -1.84533305E-02  1.23532543E-09
  3.18470975E-09  9.26375019E-10 -7.88551018E-10 -2.28738796E-09 -8.58598279E-09
  8.66497342E-10  5.83599555E-10 -3.32641130E-09  6.06483914E-09  3.29895055E-09
  1.34244665E-09 -7.46763474E-09 -2.37269975E-09 -6.64216236E-09 -3.53497235E-09
 -2.03641049E-09  8.77542184E-09  2.47282257E-09 -5.51011777E-04  1.56732569E-02
  1.79407594E-03  8.67706746E-04  1.25201876E-03  7.77446385E-04 -2.62266062E-03
 -3.78425956E-03 -2.34985276E-03 -5.51010716E-04  1.56732456E-02  1.79407413E-03
  1.06999973E-03 -1.27369475E-03 -3.97094606E-04 -3.23409818E-03  3.84977787E-03
  1.20023100E-03 -5.51006497E-04  1.56732178E-02  1.79407723E-03 -1.21852465E-03
 -5.84880359E-04  1.04784794E-03  3.68302003E-03  1.76781687E-03 -3.16715243E-03
 -5.51015039E-04  1.56732695E-02  1.79407369E-03 -7.19180964E-04  6.06558672E-04
 -1.42820077E-03  2.17373781E-03 -1.83333822E-03  4.31677283E-03 -1.88918845E-01
  3.85910473E-01  1.16185625E-01  3.08605752E-02 -4.85810459E-08 -4.50807069E-08
  3.11343991E-08  7.30383438E-08  1.57657513E-08  2.18289936E-09 -3.88480724E-09
 -8.39521368E-08 -4.77693858E-08  4.83280007E-09 -8.21972933E-10  7.85931492E-10
 -9.94074442E-09 -6.49571998E-09 -1.97410670E-07  3.09317592E-08 -3.50659123E-08
  2.11384318E-07  6.19477846E-08  1.86185612E-01  4.34295473E-02 -1.94596950E-03
 -1.23083140E-02 -1.77597327E-02 -1.10279765E-02 -8.99946246E-03 -1.29851351E-02
 -8.06311092E-03  1.86185637E-01  4.34296507E-02 -1.94617205E-03 -1.51778306E-02
  1.80672161E-02  5.63274276E-03 -1.10975144E-02  1.32099880E-02  4.11842521E-03
  1.86185563E-01  4.34294786E-02 -1.94613489E-03  1.72846606E-02  8.29647443E-03
 -1.48636302E-02  1.26379088E-02  6.06604432E-03 -1.08675358E-02  1.86185757E-01
  4.34298949E-02 -1.94610390E-03  1.02014880E-02 -8.60395945E-03  2.02588420E-02
  7.45902469E-03 -6.29089636E-03  1.48124998E-02  5.04002518E-08 -1.18237549E-07
  2.03280360E-07 -3.45794462E-07  1.16046346E-02  1.11713042E-01  4.33096856E-01
 -5.14824835E-04 -4.95702773E-03 -1.92177519E-02 -8.27477320E-04 -7.96744225E-03
 -3.08889624E-02 -4.82510595E-03 -6.87297880E-03  6.64494005E-03  5.30411638E-04
  1.67374374E-02  1.47934275E-02  2.10721714E-02 -2.03730562E-02 -1.62617788E-03
 -5.13160515E-02  2.58236832E-01  3.13127421E-01  3.57699109E-02 -8.95391073E-03
 -9.66130638E-03  6.48018992E-03 -3.26592916E-02 -4.67043318E-02 -2.73929514E-02
 -1.60176867E-01 -1.94224071E-01 -2.21871852E-02  7.55133497E-03 -4.68211303E-03
  1.22047612E-02  2.50709076E-02 -2.92887937E-02 -7.37029220E-03  1.98642950E-01
  2.40866376E-01  2.75156119E-02  1.05005583E-02  8.68191823E-03  6.17203829E-03
  3.53863516E-02  1.74545007E-02 -2.84707711E-02 -2.96702655E-01 -3.59769626E-01
 -4.10981207E-02 -8.50769219E-03  1.13440589E-02 -2.82644008E-03 -3.10985379E-02
  2.67658053E-02 -5.99447824E-02 -4.53076466E-08  6.72385978E-08 -2.44077601E-08
 -2.69317737E-07 -7.22130291E-02  4.28026656E-01 -1.08470362E-01  3.20392499E-03
 -1.89922491E-02  4.81309673E-03  5.15007259E-03 -3.05273026E-02  7.73630333E-03
  7.91456018E-03  1.54604726E-02 -1.72385545E-03 -1.64967609E-03  9.36689663E-03
 -2.42655606E-02 -4.74009180E-02  5.28522012E-03  5.05776310E-03 -2.87182854E-02
  2.06372605E-01  2.50239029E-01  2.85862255E-02 -9.95138402E-03  3.90148191E-03
 -1.04179536E-02 -2.64601902E-02 -3.58265021E-02 -2.39013891E-02 -3.07441081E-01
 -3.72789867E-01 -4.25854324E-02  1.12521220E-02 -1.65798682E-03 -8.81692362E-03
  4.77029169E-02 -5.52715798E-02 -1.83015015E-02 -1.46464893E-01 -1.77597538E-01
 -2.02880367E-02 -9.92638198E-03  1.11101315E-02  2.68387246E-03 -2.63728260E-02
 -1.06128514E-02  2.19247144E-02  2.47533183E-01  3.00148559E-01  3.42874135E-02
  4.95235510E-03  8.41901980E-03  1.10333876E-02  2.56683655E-02 -2.00255074E-02
  5.11286155E-02 -3.76410157E-08  6.64222698E-08 -1.21391571E-08 -8.50139608E-08
  4.41404586E-01  6.70874424E-02 -2.91317070E-02 -1.95848617E-02 -2.97631442E-03
  1.29245928E-03 -3.14812311E-02 -4.78450692E-03  2.07770787E-03 -8.14710621E-03
  7.66961695E-03  1.39614594E-02 -7.39324796E-03 -4.50779420E-03  2.49785602E-02
 -2.35145094E-02 -4.28050020E-02  2.26671625E-02  1.38206177E-02  2.35796073E-01
  2.85916687E-01  3.26616429E-02  6.60512925E-03 -1.00197150E-02 -8.65058455E-03
 -2.79162492E-02 -4.28000726E-02 -2.68899188E-02  2.11421501E-01  2.56361715E-01
  2.92856399E-02  5.70280263E-03  1.35408291E-02  2.50444925E-03 -3.10724122E-02
  3.96075568E-02  1.21269441E-02 -3.22435585E-01 -3.90972028E-01 -4.46628197E-02
 -1.25364633E-03 -5.56918598E-03  1.31017618E-02 -5.54037384E-02 -2.72334525E-02
  4.91930072E-02 -1.24782108E-01 -1.51306242E-01 -1.72844071E-02  1.13990024E-02
  5.46067707E-03 -8.43750830E-03 -1.11488818E-02  1.13455780E-02 -2.61447718E-02
 -6.36357278E-02  1.30466150E-01  6.84217160E-01  1.74295561E+00  3.72988549E-06
  2.38585195E-07 -3.72452349E-06 -2.73199169E-05  2.29957079E-05  5.06071873E-05
 -7.10595523E-06  5.16045676E-05  5.79387482E-05  2.50134150E-08 -9.39550786E-08
 -1.50797274E-08  3.69777521E-08  2.69343845E-07  1.02434871E-06 -4.99186584E-06
 -1.58438887E-06  2.77580329E-06  1.07314166E-05 -3.00142139E-03 -2.96284090E-01
 -5.81699462E-01 -4.50868556E-03 -6.50563191E-03 -4.03977076E-03  6.89916975E-03
  9.94921978E-03  6.17536097E-03 -2.99706108E-03 -2.96151274E-01 -5.81537241E-01
 -5.56028884E-03  6.61910504E-03  2.06357587E-03  8.48158359E-03 -1.00993263E-02
 -3.15219115E-03 -3.00423046E-03 -2.96324339E-01 -5.81511965E-01  6.33102737E-03
  3.03888675E-03 -5.44414325E-03 -9.69036740E-03 -4.65524820E-03  8.32881305E-03
 -2.99855866E-03 -2.96196100E-01 -5.81566147E-01  3.73726741E-03 -3.15184057E-03
  7.42161924E-03 -5.70424117E-03  4.80870257E-03 -1.13361302E-02  2.95039642E-06
 -8.89193750E-06  1.05022851E-05  6.89992951E-05  1.24156031E-01  7.27530040E-02
 -1.99923479E-02  1.43765834E-01  8.41872872E-02 -2.31564340E-02  8.33060960E-01
  4.88046674E-01 -1.34159012E-01 -3.21491789E-04  8.83840280E-04  8.55429829E-04
 -5.15320728E-04 -3.02078947E-05  7.62366843E-03 -2.09732089E-02 -2.02930293E-02
  1.22252332E-02  7.09276530E-04  2.63426195E-02 -1.85213735E-02 -2.93715561E+00
 -2.07160899E-03 -6.53653370E-03 -6.23154650E-03 -4.71047180E-02 -1.88980563E-02
  1.83144965E-02  6.91357614E-03 -4.97463228E-03 -7.71373037E-01  2.12894598E-03
  4.81864052E-03  7.95363375E-05 -5.39469418E-02 -3.74813842E-02  7.99214683E-03
 -3.08689175E-02  2.17519941E-02  3.44228929E+00 -6.08336278E-03 -2.48143132E-03
  8.12431467E-03 -4.05452533E-02 -2.55234472E-02 -5.14819469E-03 -2.38572007E-03
  1.70121862E-03  2.66227487E-01  3.67269992E-03  2.81907936E-03 -1.59351048E-03
 -5.64906400E-02 -3.41882544E-02  1.07370568E-02 -1.69220335E-06  3.03851502E-06
  1.76443065E-05  1.77762307E-05 -1.45845593E-03  4.08067600E-02  1.39431347E-01
 -1.71898592E-03  4.72675707E-02  1.61435733E-01 -9.84561578E-03  2.73812004E-01
  9.35443278E-01 -2.95102918E-04 -4.49829601E-04  4.24626230E-04  4.77941363E-05
  1.18802317E-03  7.00313417E-03  1.06703918E-02 -1.00745954E-02 -1.13185045E-03
 -2.81739517E-02  2.27397381E-02 -1.60384726E-02 -2.53565354E+00 -5.41088961E-03
 -6.37656824E-03 -1.55970262E-04  9.43998635E-03 -6.17347218E-03 -5.64403595E-02
 -1.56496302E-02  1.10911635E-02  1.74534903E+00  4.50214811E-03 -4.05672588E-03
  2.95945985E-03 -6.77488216E-03 -9.94886249E-03 -6.15288847E-02  1.78218788E-02
 -1.25997824E-02 -1.98743619E+00  5.85311523E-03  4.19333807E-03 -4.26830312E-04
 -8.97598479E-03 -2.34502870E-02 -5.59933674E-02 -2.49128487E-02  1.75153813E-02
  2.77771527E+00 -4.91739758E-03  5.46671626E-03 -5.02014324E-03  8.62943123E-03
 -2.55275782E-02 -4.84985306E-02 -1.00857949E-07 -1.48276155E-07  4.95100852E-06
  9.89252982E-06 -7.54374112E-02  1.18954406E-01 -3.56037358E-02 -8.73297477E-02
  1.37756554E-01 -4.12390512E-02 -5.06072944E-01  7.98103372E-01 -2.38891984E-01
  7.31874103E-04  8.13191351E-04 -4.91533116E-04  8.35408107E-05  6.62002707E-04
 -1.73559900E-02 -1.92796660E-02  1.16590518E-02 -1.98244968E-03 -1.56999760E-02
  8.01761347E-03 -5.69474865E-03 -8.94210983E-01 -4.40562475E-03  1.23756206E-03
 -2.88106817E-03  3.78802629E-02 -5.03870659E-02  1.91937420E-02 -3.13430560E-02
  2.21109725E-02  3.49502482E+00  6.59898675E-03 -6.88307388E-03 -4.56929861E-03
  1.98853745E-02 -3.71176831E-02  2.19474025E-02 -2.14823242E-03  1.56905785E-03
  2.39818931E-01 -3.22670123E-03  3.62410148E-03 -5.74886500E-04  3.59575828E-02
 -5.42888968E-02  1.54090266E-02  2.54736327E-02 -1.79955607E-02 -2.84063941E+00
  2.46377103E-03 -2.33242828E-04  8.69992709E-03  2.66411970E-02 -4.79880453E-02
  2.50406988E-04  1.12144695E-06 -7.53550704E-06  5.41137685E-05  1.97238748E-04
  3.84589445E-02  2.48402179E-02  1.37734659E-03 -9.91597081E-01 -6.40381988E-01
 -3.55781641E-02 -2.96649869E+00 -1.91580423E+00 -1.06430833E-01 -5.80200998E-03
  1.25370975E-02  1.44676260E-02 -7.88910581E-03  2.77960375E-03  6.84562706E-02
 -1.47921592E-01 -1.70699595E-01  9.30812174E-02 -3.27963223E-02  1.40571447E-01
  2.37191785E+00  4.47157649E+00 -9.71901469E-03 -8.23708707E-03 -2.46422974E-03
 -2.20458897E-01 -3.21054935E-01 -2.00711322E-01  1.92354975E-02  3.24528043E-01
  6.11839644E-01 -7.67399908E-03 -4.19479744E-03 -1.06747785E-04 -3.41152518E-02
  4.74088267E-02  1.41694089E-02 -1.28568276E-01 -2.16946302E+00 -4.08981590E+00
 -1.04196287E-02 -6.20502215E-03  2.45702413E-03 -2.84225051E-01 -1.35811865E-01
  2.47733319E-01 -3.12367981E-02 -5.27127637E-01 -9.93726950E-01 -7.71286161E-03
 -4.30584485E-03 -1.16072907E-03 -3.75862498E-02  3.72137582E-02 -8.18624657E-02
  8.68236630E-06 -4.20524625E-05  2.27604169E-04  9.37828650E-04  5.56875642E-03
 -6.11631245E-03 -4.50494310E-02 -1.43538920E-01  1.57759427E-01  1.16148115E+00
 -4.29443747E-01  4.71956523E-01  3.47482509E+00  4.49921313E-03  1.02712744E-02
 -4.79464348E-03 -2.05436566E-03 -1.78102310E-02 -5.30822705E-02 -1.21179300E-01
  5.65687500E-02  2.42370941E-02  2.10125826E-01 -8.11842327E-02 -1.37006382E+00
 -2.58274215E+00  3.71534372E-04  3.20752513E-03  9.77803409E-03  1.30019200E-01
  1.86247015E-01  1.11687835E-01  6.78632611E-02  1.14487534E+00  2.15849427E+00
 -2.51279491E-03  2.89521351E-03  9.04607898E-03 -1.32873922E-01  1.58215507E-01
  4.51819939E-02 -1.08117772E-01 -1.82449871E+00 -3.43945289E+00 -3.71039513E-03
 -1.21576701E-04  1.07905290E-02 -2.41611881E-01 -1.16818243E-01  2.03903715E-01
  1.21450366E-01  2.04907106E+00  3.86309036E+00  7.08814133E-04 -3.29207601E-04
  1.19982265E-02  1.61027421E-01 -1.35946829E-01  3.14388042E-01  3.69333606E-06
 -1.71888327E-05  8.94689448E-05  3.79510403E-04  2.42472694E-02 -3.79914906E-02
  8.15253025E-03 -6.25060733E-01  9.79567633E-01 -2.10313401E-01 -1.87003542E+00
  2.93061152E+00 -6.29163627E-01 -1.12840261E-02 -1.21638288E-02  7.46440979E-03
 -1.46771624E-03 -1.17057279E-02  1.33124998E-01  1.43506949E-01 -8.80614486E-02
  1.73146933E-02  1.38097147E-01 -4.33040938E-02 -7.30754097E-01 -1.37761603E+00
 -3.81787644E-03  8.26627475E-03 -8.60180426E-04  7.13836359E-02  9.60032378E-02
  6.26601822E-02  1.52487663E-01  2.57285340E+00  4.85045217E+00 -7.86541612E-03
  1.10871194E-02 -3.19072547E-04 -2.97498859E-01  3.53253580E-01  1.12053131E-01
  2.63175454E-03  4.43480152E-02  8.36860838E-02 -4.51281666E-03  7.20229336E-03
 -1.59435010E-03  8.20068371E-03 -8.25185892E-04 -4.27143174E-03 -1.11810663E-01
 -1.88669120E+00 -3.55676976E+00 -6.19836389E-03  8.53990018E-03 -4.76092668E-03
 -1.45457122E-01  1.20993583E-01 -2.92690046E-01  6.06171835E-02 -3.02258521E-01
  1.66875961E+00  7.28590833E+00 -6.26875094E-06 -1.50250445E-06  4.54505553E-06
  3.02463318E-05 -4.84938286E-05 -8.25829794E-05  1.90906141E-04 -1.58911620E-04
 -3.61703318E-04  2.58921016E-07 -1.43186086E-06 -1.36007136E-07  7.79175975E-07
  4.09937978E-06 -7.67288986E-07  6.46380924E-06 -1.23483168E-06 -4.64876615E-06
 -2.51890217E-05  2.31100318E-02 -1.15851691E+00 -1.22940143E+00  1.40077545E-02
  2.02105818E-02  1.25490820E-02  1.70460621E-01  2.45945145E-01  1.52712553E-01
  2.30812044E-02 -1.15888647E+00 -1.23017667E+00  1.72733154E-02 -2.05614775E-02
 -6.41130819E-03  2.10223642E-01 -2.50239946E-01 -7.80271859E-02  2.31165837E-02
 -1.15847245E+00 -1.22925702E+00 -1.96698257E-02 -9.44209562E-03  1.69140709E-02
 -2.39358362E-01 -1.14896243E-01  2.05826691E-01  2.30898011E-02 -1.15878308E+00
 -1.22994374E+00 -1.16090331E-02  9.79099968E-03 -2.30561633E-02 -1.41281801E-01
  1.19158776E-01 -2.80593412E-01  1.90094631E-07  1.03070022E-06 -1.64933889E-05
 -5.41732535E-05 -3.34491776E-01 -1.40915191E-01  7.89605102E-02 -2.89477477E-01
 -1.21969008E-01  6.83401432E-02  1.55449750E+00  6.54873769E-01 -3.66950439E-01
 -1.06504656E-02  2.45339498E-02  2.49892377E-02 -1.53477504E-02 -6.62088513E-03
  1.63586617E-02 -3.76885769E-02 -3.83862060E-02  2.35757124E-02  1.01683938E-02
  1.00367386E-01  5.44304832E-01 -2.44146538E+00  2.51279415E-04  9.33377906E-03
  1.01657914E-02 -5.13940623E-02  1.90018224E-01  2.46671978E-01  5.19526802E-02
  2.81722044E-01 -1.26373768E+00 -3.01578375E-03 -1.05622399E-02 -6.67824217E-05
 -1.26329529E-01 -2.66355592E-01  1.19575288E-02 -1.41839687E-01 -7.69176711E-01
  3.45029986E+00  9.14478351E-03  4.90507379E-03 -1.33422789E-02  1.52599427E-01
  8.84320712E-02 -2.92545930E-01 -1.04799369E-02 -5.68024860E-02  2.54936836E-01
 -7.99936079E-03 -4.35869952E-03  3.62551895E-03 -2.40646592E-01 -1.24055152E-01
  9.66512051E-02  9.08100955E-07 -2.75162452E-06  1.29821399E-06  5.43637793E-05
 -2.58177942E-02  2.25882023E-01  2.93746010E-01 -2.23444498E-02  1.95477391E-01
  2.54221184E-01  1.19986158E-01 -1.04977185E+00 -1.36516322E+00  2.03731707E-03
  6.28119248E-04 -1.00992738E-02 -7.52728814E-05 -3.88927185E-02 -3.12735603E-03
 -9.67236599E-04  1.55160221E-02  1.16670128E-04  5.97408667E-02 -1.21044420E-01
 -6.56406554E-01  2.94451530E+00 -1.15712762E-02 -9.78840323E-03 -2.04900966E-03
 -2.69830082E-01 -1.85923626E-01  3.19350307E-03  1.06978382E-01  5.80114894E-01
 -2.60234497E+00  1.11945649E-02 -8.20252890E-03  3.30548662E-03  2.52364921E-01
 -1.49546035E-01  1.26018716E-01 -5.12986135E-02 -2.78200962E-01  1.24789621E+00
  5.80538304E-03  9.04172858E-03  2.13631940E-03  1.28750983E-01  2.45993695E-01
  9.91964876E-02  6.53666150E-02  3.54479182E-01 -1.59011199E+00 -5.55363074E-03
  1.00423279E-02 -1.97132972E-03 -1.31797316E-01  2.68946689E-01  4.98294259E-03
 -1.38049930E-07 -1.55759515E-07  5.14874077E-06  1.55293915E-05 -1.59452718E-01
  2.59029726E-01 -2.13200583E-01 -1.37999683E-01  2.24169045E-01 -1.84500283E-01
  7.41059712E-01 -1.20383422E+00  9.90843868E-01 -2.25068773E-02 -2.84941797E-02
  1.62946058E-02 -8.68564963E-04 -5.86866969E-03  3.45718405E-02  4.37675833E-02
 -2.50296504E-02  1.33715530E-03  9.01587227E-03 -5.00281919E-03 -2.71319711E-02
  1.21682787E-01 -4.63612335E-03  6.15058039E-03 -6.00037991E-03 -1.33590222E-01
  1.85342405E-01 -1.74068753E-01  1.02990149E-01  5.58501577E-01 -2.50539441E+00
  7.24383981E-03 -6.80563135E-03 -9.83882153E-03  1.38906219E-01 -1.11838548E-01
 -2.62110958E-01  4.47275651E-02  2.42530314E-01 -1.08802251E+00 -9.83875141E-03
  4.08672688E-03 -7.35940527E-04 -2.52925276E-01  1.38001966E-01 -5.33119123E-02
 -1.42715247E-01 -7.73915315E-01  3.47172501E+00  6.45955342E-03 -2.17826917E-03
  1.55434586E-02  1.20921624E-01 -5.70062159E-03  3.20097017E-01 -1.50431605E-08