entry 000092                                                            
SP        RHF                                                         CC-pVDZ             
Number of atoms                            I                9
Info1-9                                    I   N=           9
          21          19           0           0           0         110
           1           1           2
Full Title                                 C   N=           1
entry 000092
Route                                      C   N=           6
#HF/cc-pVDZ NoSymmetry Output=WFX Density=Current Population
=Full       
Charge                                     I                0
Multiplicity                               I                1
Number of electrons                        I               38
Number of alpha electrons                  I               19
Number of beta electrons                   I               19
Number of basis functions                  I               90
Number of independent functions            I               90
Number of point charges in /Mol/           I                0
Number of translation vectors              I                0
Atomic numbers                             I   N=           9
           8           6           6           6           8           1
           1           1           1
Nuclear charges                            R   N=           9
  8.00000000E+00  6.00000000E+00  6.00000000E+00  6.00000000E+00  8.00000000E+00
  1.00000000E+00  1.00000000E+00  1.00000000E+00  1.00000000E+00
Current cartesian coordinates              R   N=          27
  8.36015546E-02  7.43275158E-02 -6.24953288E-01 -9.17363552E-02  2.21884516E+00
  7.74931292E-03 -2.15828751E+00  4.22565154E+00  2.89853019E-01  4.40785760E-02
  5.90269203E+00  1.16561378E+00  1.80778397E+00  3.80194230E+00  8.05094110E-01
 -3.07219871E+00  4.75232505E+00 -1.48156611E+00 -3.59065373E+00  3.77101248E+00
  1.70129517E+00  5.36078958E-01  7.48657997E+00 -6.10246744E-02  1.47823887E-02
  6.49957421E+00  3.14002042E+00
Number of symbols in /Mol/                 I                0
Force Field                                I                0
Atom Types                                 C   N=           9
                                                            
                                                
Int Atom Types                             I   N=           9
           0           0           0           0           0           0
           0           0           0
MM charges                                 R   N=           9
  0.00000000E+00  0.00000000E+00  0.00000000E+00  0.00000000E+00  0.00000000E+00
  0.00000000E+00  0.00000000E+00  0.00000000E+00  0.00000000E+00
Integer atomic weights                     I   N=           9
          16          12          12          12          16           1
           1           1           1
Real atomic weights                        R   N=           9
  1.59949146E+01  1.20000000E+01  1.20000000E+01  1.20000000E+01  1.59949146E+01
  1.00782504E+00  1.00782504E+00  1.00782504E+00  1.00782504E+00
Atom fragment info                         I   N=           9
           0           0           0           0           0           0
           0           0           0
Atom residue num                           I   N=           9
           0           0           0           0           0           0
           0           0           0
Nuclear spins                              I   N=           9
           0           0           0           0           0           1
           1           1           1
Nuclear ZEff                               R   N=           9
 -5.60000000E+00 -3.60000000E+00 -3.60000000E+00 -3.60000000E+00 -5.60000000E+00
 -1.00000000E+00 -1.00000000E+00 -1.00000000E+00 -1.00000000E+00
Nuclear ZNuc                               R   N=           9
  8.00000000E+00  6.00000000E+00  6.00000000E+00  6.00000000E+00  8.00000000E+00
  1.00000000E+00  1.00000000E+00  1.00000000E+00  1.00000000E+00
Nuclear QMom                               R   N=           9
  0.00000000E+00  0.00000000E+00  0.00000000E+00  0.00000000E+00  0.00000000E+00
  0.00000000E+00  0.00000000E+00  0.00000000E+00  0.00000000E+00
Nuclear GFac                               R   N=           9
  0.00000000E+00  0.00000000E+00  0.00000000E+00  0.00000000E+00  0.00000000E+00
  2.79284600E+00  2.79284600E+00  2.79284600E+00  2.79284600E+00
MicOpt                                     I   N=           9
          -1          -1          -1          -1          -1          -1
          -1          -1          -1
Number of residues                         I                0
Number of secondary structures             I                0
Number of contracted shells                I               42
Number of primitive shells                 I              120
Pure/Cartesian d shells                    I                0
Pure/Cartesian f shells                    I                0
Highest angular momentum                   I                2
Largest degree of contraction              I                7
Shell types                                I   N=          42
           0           0           0           1           1          -2
           0           0           0           1           1          -2
           0           0           0           1           1          -2
           0           0           0           1           1          -2
           0           0           0           1           1          -2
           0           0           1           0           0           1
           0           0           1           0           0           1
Number of primitives per shell             I   N=          42
           7           7           1           3           1           1
           7           7           1           3           1           1
           7           7           1           3           1           1
           7           7           1           3           1           1
           7           7           1           3           1           1
           3           1           1           3           1           1
           3           1           1           3           1           1
Shell to atom map                          I   N=          42
           1           1           1           1           1           1
           2           2           2           2           2           2
           3           3           3           3           3           3
           4           4           4           4           4           4
           5           5           5           5           5           5
           6           6           6           7           7           7
           8           8           8           9           9           9
Primitive exponents                        R   N=         120
  1.17200000E+04  1.75900000E+03  4.00800000E+02  1.13700000E+02  3.70300000E+01
  1.32700000E+01  5.02500000E+00  1.17200000E+04  4.00800000E+02  1.13700000E+02
  3.70300000E+01  1.32700000E+01  5.02500000E+00  1.01300000E+00  3.02300000E-01
  1.77000000E+01  3.85400000E+00  1.04600000E+00  2.75300000E-01  1.18500000E+00
  6.66500000E+03  1.00000000E+03  2.28000000E+02  6.47100000E+01  2.10600000E+01
  7.49500000E+00  2.79700000E+00  6.66500000E+03  2.28000000E+02  6.47100000E+01
  2.10600000E+01  7.49500000E+00  2.79700000E+00  5.21500000E-01  1.59600000E-01
  9.43900000E+00  2.00200000E+00  5.45600000E-01  1.51700000E-01  5.50000000E-01
  6.66500000E+03  1.00000000E+03  2.28000000E+02  6.47100000E+01  2.10600000E+01
  7.49500000E+00  2.79700000E+00  6.66500000E+03  2.28000000E+02  6.47100000E+01
  2.10600000E+01  7.49500000E+00  2.79700000E+00  5.21500000E-01  1.59600000E-01
  9.43900000E+00  2.00200000E+00  5.45600000E-01  1.51700000E-01  5.50000000E-01
  6.66500000E+03  1.00000000E+03  2.28000000E+02  6.47100000E+01  2.10600000E+01
  7.49500000E+00  2.79700000E+00  6.66500000E+03  2.28000000E+02  6.47100000E+01
  2.10600000E+01  7.49500000E+00  2.79700000E+00  5.21500000E-01  1.59600000E-01
  9.43900000E+00  2.00200000E+00  5.45600000E-01  1.51700000E-01  5.50000000E-01
  1.17200000E+04  1.75900000E+03  4.00800000E+02  1.13700000E+02  3.70300000E+01
  1.32700000E+01  5.02500000E+00  1.17200000E+04  4.00800000E+02  1.13700000E+02
  3.70300000E+01  1.32700000E+01  5.02500000E+00  1.01300000E+00  3.02300000E-01
  1.77000000E+01  3.85400000E+00  1.04600000E+00  2.75300000E-01  1.18500000E+00
  1.30100000E+01  1.96200000E+00  4.44600000E-01  1.22000000E-01  7.27000000E-01
  1.30100000E+01  1.96200000E+00  4.44600000E-01  1.22000000E-01  7.27000000E-01
  1.30100000E+01  1.96200000E+00  4.44600000E-01  1.22000000E-01  7.27000000E-01
  1.30100000E+01  1.96200000E+00  4.44600000E-01  1.22000000E-01  7.27000000E-01
Contraction coefficients                   R   N=         120
  7.11864434E-04  5.48520199E-03  2.79099296E-02  1.05133208E-01  2.84002490E-01
  4.51673946E-01  2.73208126E-01  7.69030046E-06  3.13484579E-04 -2.96614853E-03
 -1.08753543E-02 -1.20753817E-01 -1.06275264E-01  1.09597548E+00  1.00000000E+00
  6.26791663E-02  3.33536566E-01  7.41239642E-01  1.00000000E+00  1.00000000E+00
  6.93516317E-04  5.34150243E-03  2.71366714E-02  1.01992385E-01  2.75508636E-01
  4.51086433E-01  2.87565745E-01  7.73354740E-06  2.78072137E-04 -2.57875654E-03
 -8.95087684E-03 -1.06058855E-01 -1.31517686E-01  1.09948660E+00  1.00000000E+00
  5.69792516E-02  3.13207212E-01  7.60376742E-01  1.00000000E+00  1.00000000E+00
  6.93516317E-04  5.34150243E-03  2.71366714E-02  1.01992385E-01  2.75508636E-01
  4.51086433E-01  2.87565745E-01  7.73354740E-06  2.78072137E-04 -2.57875654E-03
 -8.95087684E-03 -1.06058855E-01 -1.31517686E-01  1.09948660E+00  1.00000000E+00
  5.69792516E-02  3.13207212E-01  7.60376742E-01  1.00000000E+00  1.00000000E+00
  6.93516317E-04  5.34150243E-03  2.71366714E-02  1.01992385E-01  2.75508636E-01
  4.51086433E-01  2.87565745E-01  7.73354740E-06  2.78072137E-04 -2.57875654E-03
 -8.95087684E-03 -1.06058855E-01 -1.31517686E-01  1.09948660E+00  1.00000000E+00
  5.69792516E-02  3.13207212E-01  7.60376742E-01  1.00000000E+00  1.00000000E+00
  7.11864434E-04  5.48520199E-03  2.79099296E-02  1.05133208E-01  2.84002490E-01
  4.51673946E-01  2.73208126E-01  7.69030046E-06  3.13484579E-04 -2.96614853E-03
 -1.08753543E-02 -1.20753817E-01 -1.06275264E-01  1.09597548E+00  1.00000000E+00
  6.26791663E-02  3.33536566E-01  7.41239642E-01  1.00000000E+00  1.00000000E+00
  3.34987264E-02  2.34800801E-01  8.13682958E-01  1.00000000E+00  1.00000000E+00
  3.34987264E-02  2.34800801E-01  8.13682958E-01  1.00000000E+00  1.00000000E+00
  3.34987264E-02  2.34800801E-01  8.13682958E-01  1.00000000E+00  1.00000000E+00
  3.34987264E-02  2.34800801E-01  8.13682958E-01  1.00000000E+00  1.00000000E+00
Coordinates of each shell                  R   N=         126
  8.36015546E-02  7.43275158E-02 -6.24953288E-01  8.36015546E-02  7.43275158E-02
 -6.24953288E-01  8.36015546E-02  7.43275158E-02 -6.24953288E-01  8.36015546E-02
  7.43275158E-02 -6.24953288E-01  8.36015546E-02  7.43275158E-02 -6.24953288E-01
  8.36015546E-02  7.43275158E-02 -6.24953288E-01 -9.17363552E-02  2.21884516E+00
  7.74931292E-03 -9.17363552E-02  2.21884516E+00  7.74931292E-03 -9.17363552E-02
  2.21884516E+00  7.74931292E-03 -9.17363552E-02  2.21884516E+00  7.74931292E-03
 -9.17363552E-02  2.21884516E+00  7.74931292E-03 -9.17363552E-02  2.21884516E+00
  7.74931292E-03 -2.15828751E+00  4.22565154E+00  2.89853019E-01 -2.15828751E+00
  4.22565154E+00  2.89853019E-01 -2.15828751E+00  4.22565154E+00  2.89853019E-01
 -2.15828751E+00  4.22565154E+00  2.89853019E-01 -2.15828751E+00  4.22565154E+00
  2.89853019E-01 -2.15828751E+00  4.22565154E+00  2.89853019E-01  4.40785760E-02
  5.90269203E+00  1.16561378E+00  4.40785760E-02  5.90269203E+00  1.16561378E+00
  4.40785760E-02  5.90269203E+00  1.16561378E+00  4.40785760E-02  5.90269203E+00
  1.16561378E+00  4.40785760E-02  5.90269203E+00  1.16561378E+00  4.40785760E-02
  5.90269203E+00  1.16561378E+00  1.80778397E+00  3.80194230E+00  8.05094110E-01
  1.80778397E+00  3.80194230E+00  8.05094110E-01  1.80778397E+00  3.80194230E+00
  8.05094110E-01  1.80778397E+00  3.80194230E+00  8.05094110E-01  1.80778397E+00
  3.80194230E+00  8.05094110E-01  1.80778397E+00  3.80194230E+00  8.05094110E-01
 -3.07219871E+00  4.75232505E+00 -1.48156611E+00 -3.07219871E+00  4.75232505E+00
 -1.48156611E+00 -3.07219871E+00  4.75232505E+00 -1.48156611E+00 -3.59065373E+00
  3.77101248E+00  1.70129517E+00 -3.59065373E+00  3.77101248E+00  1.70129517E+00
 -3.59065373E+00  3.77101248E+00  1.70129517E+00  5.36078958E-01  7.48657997E+00
 -6.10246744E-02  5.36078958E-01  7.48657997E+00 -6.10246744E-02  5.36078958E-01
  7.48657997E+00 -6.10246744E-02  1.47823887E-02  6.49957421E+00  3.14002042E+00
  1.47823887E-02  6.49957421E+00  3.14002042E+00  1.47823887E-02  6.49957421E+00
  3.14002042E+00
Num ILSW                                   I              100
ILSW                                       I   N=         100
           0           0           0           0           2           0
           0           0           0           0           0          -1
           5           0           0           0           0           0
           0           0           1           0           0           0
           1           1           0           0           0           0
           0           0      100000           0          -1           0
           0           0           0           0           0           0
           0           0           0           1           0           0
           0 -2000000000           1           0           0           0
           0           0           4          52           0           0
           0           0           0           0           0           0
           0           0           0           0           0           1
           0           0           0           0           0           0
           0           0           0           0           0           0
           0           0           0           0           0           0
           0           0           0           0           0           0
           0           0           0           0
Num RLSW                                   I               52
RLSW                                       R   N=          52
  1.00000000E+00  1.00000000E+00  1.00000000E+00  1.00000000E+00  1.00000000E+00
  0.00000000E+00  0.00000000E+00  1.00000000E+00  0.00000000E+00  0.00000000E+00
  0.00000000E+00  0.00000000E+00  1.00000000E+00  0.00000000E+00  0.00000000E+00
  0.00000000E+00  0.00000000E+00  1.00000000E+00  0.00000000E+00  0.00000000E+00
  0.00000000E+00  0.00000000E+00  1.00000000E+00  0.00000000E+00  0.00000000E+00
  0.00000000E+00  0.00000000E+00  1.00000000E+00  0.00000000E+00  0.00000000E+00
  0.00000000E+00  0.00000000E+00  1.00000000E+00  0.00000000E+00  0.00000000E+00
  0.00000000E+00  0.00000000E+00  0.00000000E+00  1.00000000E+00  1.00000000E+00
  0.00000000E+00  1.00000000E+00  0.00000000E+00  0.00000000E+00  0.00000000E+00
  0.00000000E+00  0.00000000E+00  0.00000000E+00  0.00000000E+00  0.00000000E+00
  0.00000000E+00  0.00000000E+00
MxBond                                     I                4
NBond                                      I   N=           9
           1           3           4           4           2           1
           1           1           1
IBond                                      I   N=          36
           2           0           0           0           1           3
           5           0           2           4           6           7
           3           5           8           9           2           4
           0           0           3           0           0           0
           3           0           0           0           4           0
           0           0           4           0           0           0
RBond                                      R   N=          36
  2.00000000E+00  0.00000000E+00  0.00000000E+00  0.00000000E+00  2.00000000E+00
  1.00000000E+00  1.50000000E+00  0.00000000E+00  1.00000000E+00  1.00000000E+00
  1.00000000E+00  1.00000000E+00  1.00000000E+00  1.00000000E+00  1.00000000E+00
  1.00000000E+00  1.50000000E+00  1.00000000E+00  0.00000000E+00  0.00000000E+00
  1.00000000E+00  0.00000000E+00  0.00000000E+00  0.00000000E+00  1.00000000E+00
  0.00000000E+00  0.00000000E+00  0.00000000E+00  1.00000000E+00  0.00000000E+00
  0.00000000E+00  0.00000000E+00  1.00000000E+00  0.00000000E+00  0.00000000E+00
  0.00000000E+00
Virial Ratio                               R      2.001002868091585E+00
SCF Energy                                 R     -2.656588848771016E+02
Total Energy                               R     -2.656588848771016E+02
RMS Density                                R      9.812594063632519E-09
Job Status                                 I                1
Nuclear derivative order                   I                0
External E-field                           R   N=          35
  0.00000000E+00  0.00000000E+00  0.00000000E+00  0.00000000E+00  0.00000000E+00
  0.00000000E+00  0.00000000E+00  0.00000000E+00  0.00000000E+00  0.00000000E+00
  0.00000000E+00  0.00000000E+00  0.00000000E+00  0.00000000E+00  0.00000000E+00
  0.00000000E+00  0.00000000E+00  0.00000000E+00  0.00000000E+00  0.00000000E+00
  0.00000000E+00  0.00000000E+00  0.00000000E+00  0.00000000E+00  0.00000000E+00
  0.00000000E+00  0.00000000E+00  0.00000000E+00  0.00000000E+00  0.00000000E+00
  0.00000000E+00  0.00000000E+00  0.00000000E+00  0.00000000E+00  0.00000000E+00
IOpCl                                      I                0
IROHF                                      I                0
Alpha Orbital Energies                     R   N=          90
 -2.06022999E+01 -2.05585449E+01 -1.13922270E+01 -1.13180024E+01 -1.12727254E+01
 -1.46721746E+00 -1.38338108E+00 -1.05499252E+00 -9.20591997E-01 -7.57439691E-01
 -7.08422657E-01 -6.98521997E-01 -6.77327917E-01 -5.72561944E-01 -5.67486672E-01
 -5.63149793E-01 -5.19776897E-01 -4.58459098E-01 -4.42543846E-01  1.67768086E-01
  1.70002497E-01  2.12523455E-01  2.21500725E-01  2.56708087E-01  2.83657188E-01
  2.97126345E-01  4.10628175E-01  4.71194670E-01  5.21763259E-01  5.76492831E-01
  5.84422726E-01  6.54192014E-01  7.07718269E-01  7.21917149E-01  7.49056724E-01
  7.66619244E-01  8.12811604E-01  8.40978997E-01  8.44158526E-01  8.75718131E-01
  9.09885787E-01  9.38900535E-01  9.73045739E-01  1.05284158E+00  1.07536392E+00
  1.13316347E+00  1.27251872E+00  1.29399864E+00  1.33942829E+00  1.38399006E+00
  1.41108897E+00  1.41281018E+00  1.46853918E+00  1.50571243E+00  1.57683999E+00
  1.69414882E+00  1.72312333E+00  1.76740851E+00  1.82235176E+00  1.83276298E+00
  1.83644586E+00  1.89353446E+00  1.90261442E+00  1.94031407E+00  2.00237181E+00
  2.01862450E+00  2.03294852E+00  2.08531085E+00  2.18948923E+00  2.20792219E+00
  2.30778551E+00  2.32020793E+00  2.37396018E+00  2.41683368E+00  2.62515775E+00
  2.68784930E+00  2.72455750E+00  2.72900835E+00  2.89145597E+00  2.89863795E+00
  3.01708248E+00  3.03943623E+00  3.26343633E+00  3.29933341E+00  3.39789144E+00
  3.50403825E+00  3.62126399E+00  3.64710630E+00  3.84023897E+00  3.91548261E+00
Alpha MO coefficients                      R   N=        8100
 -3.36012071E-04 -5.16872674E-05  3.22440759E-05 -1.75430005E-05 -3.27557861E-05
 -1.29659133E-05 -2.19318186E-04 -2.71969124E-04 -1.19514613E-04 -2.49466858E-06
 -1.91722745E-05 -3.40457765E-05  5.54365629E-05 -8.65371051E-05  1.49372295E-05
  1.50389744E-04  3.42527173E-03  3.03141094E-04  2.02505724E-04  1.11787733E-04
  2.72675012E-04  1.70944069E-03  5.71323701E-04 -7.88109674E-05 -5.20832527E-05
  2.60756432E-05 -5.91715708E-05 -2.09543809E-04  4.19950936E-05  1.96375031E-04
 -3.21508181E-03 -8.46217814E-05  7.47885964E-05  9.27906614E-06 -1.78872776E-03
 -5.09592851E-05 -3.07005807E-04 -9.54025879E-05  4.74359506E-05  4.34245360E-05
  5.85185954E-05  2.45912992E-05 -3.68555881E-05 -2.11337046E-05  3.56107562E-03
  3.13478279E-04 -3.01134341E-04 -4.17934656E-05 -1.90990378E-04 -1.20544325E-03
 -4.02852365E-04  1.26247669E-04 -3.60741000E-05 -5.66228465E-05 -4.11563974E-05
  3.25529521E-05  9.97202216E-01  1.61900403E-02 -6.98416658E-03 -1.51856213E-03
  1.25619141E-04 -2.08501615E-04  2.11888560E-03 -1.87771010E-04  2.87112528E-04
  1.18360838E-04 -1.19762064E-05 -8.90875573E-05  7.77252707E-05  4.38839632E-05
  1.58915974E-04 -2.56746495E-04  1.28613504E-04  2.87298671E-05 -2.33575679E-05
  1.58864642E-04 -2.56739551E-04  1.13176324E-04 -5.09084462E-07  7.14609158E-05
 -3.67554979E-04 -7.08581022E-05  5.95444553E-06  1.75114238E-04  1.76619792E-05
 -3.67538690E-04 -7.08096115E-05 -4.87638838E-06  1.54599281E-04  8.41801454E-05
  9.97188515E-01  1.61799211E-02 -6.41273598E-03 -1.37075912E-04  1.79611603E-03
  5.31523528E-04  9.64332833E-05 -1.52076326E-03 -4.53230900E-04 -1.90782552E-04
  3.19609704E-05  1.47299939E-04 -1.15873710E-04 -3.63957485E-05  1.53483287E-04
  4.96194664E-04  8.58848839E-04 -2.32683017E-05  1.79493424E-04  5.15606896E-05
  3.66065496E-04 -3.25631544E-03 -9.44437376E-04  3.05464410E-04  3.80006607E-05
 -3.88678334E-04  6.74165633E-04  1.06634141E-04  6.75826101E-06  1.20587614E-04
  9.59180951E-04  8.19463932E-05 -5.25979694E-05 -2.87426692E-06  4.98346750E-04
  9.86443188E-05  1.11637798E-04 -2.24621196E-05  3.57688052E-05 -8.61395136E-05
  2.76528351E-04 -3.97344611E-05 -2.75501956E-05 -2.13999383E-04  4.68175276E-04
 -2.68589190E-05  4.05620908E-05  8.12224818E-06  1.36581550E-05 -5.64964068E-04
 -1.71896615E-04 -1.29586793E-05 -3.87154818E-06  5.58367262E-05 -1.24820949E-04
  3.27434142E-05  3.37788727E-04 -9.12637693E-05  4.48068725E-04  1.91375054E-05
  1.56779506E-05  7.94762243E-06 -3.42472767E-04  2.38463561E-04  1.77794039E-05
 -1.28803173E-05  1.11024663E-05 -4.66539804E-05  1.38680202E-04 -4.23477706E-05
 -2.29666201E-05 -1.95667925E-05 -6.36905338E-06 -3.07798392E-05 -6.60288934E-05
 -2.29666724E-05 -1.95987114E-05 -2.24892216E-05 -6.12911777E-05  3.29310912E-05
 -2.78207992E-05  9.73936533E-05  9.64873309E-06  2.94125029E-05  1.81966240E-05
 -2.78318453E-05  9.73300956E-05  1.18443783E-05  3.35740569E-05  4.71368948E-06
 -4.37926026E-04  5.85697880E-04 -2.37225521E-03  8.86266587E-06  3.84459569E-04
  1.19985264E-04 -1.72858561E-04 -1.10359683E-03 -3.68495664E-04 -5.08368983E-05
 -4.05894509E-05  1.03613572E-04 -2.53224206E-04 -5.77942349E-05  9.97314247E-01
  1.70467379E-02 -3.45697919E-03  6.68736522E-04  1.39342610E-04  1.51839900E-04
  1.08157970E-03 -2.23119897E-03 -5.11761032E-04 -6.98010294E-04  1.13625132E-04
  7.00959612E-04 -8.11511495E-04  3.47591160E-05  2.34172299E-03  1.17169429E-04
  3.71976895E-04 -1.02134740E-04 -2.26839011E-05 -2.36239005E-05  2.18447823E-04
 -8.36461441E-04 -2.22393427E-04  2.22428910E-04 -4.12478385E-05 -2.70026771E-06
 -2.69772441E-04  2.16285426E-04 -2.78290400E-05  3.05655019E-05  1.40534609E-03
  1.11086595E-04 -1.11323727E-04 -1.62306531E-05 -3.41153242E-04 -1.01862459E-03
 -3.69497977E-04  1.49389481E-04 -8.01319776E-05 -7.69519942E-05 -7.87630519E-05
 -6.22270498E-05 -8.33335842E-05  6.24010839E-04 -1.30552926E-03 -1.27799197E-04
 -1.36369774E-04 -6.28443135E-05  9.47398757E-04  3.78690761E-04  2.70965428E-04
  1.98800666E-04 -1.31652506E-04 -9.94698239E-05 -1.47591291E-04 -1.39738053E-04
 -6.11834819E-06  2.54959141E-04  6.69241647E-06 -2.08089892E-05  7.03980980E-05
 -6.09357165E-06  2.55035639E-04  2.86975393E-05  2.08144340E-05 -6.46271948E-05
 -1.47029237E-04  2.29720831E-04  4.48583454E-05  1.26750764E-04  8.43672794E-05
 -1.47101263E-04  2.29646121E-04  5.58894428E-05  1.47633974E-04  1.66520550E-05
 -6.89421711E-06 -5.77783647E-05  2.70236632E-04  2.30405785E-05  2.20010261E-05
  1.05322260E-05 -3.08838617E-05 -1.52128546E-04 -5.19158996E-05  4.24702226E-06
  6.13089734E-06 -5.82481045E-06  1.83882839E-05  1.44760758E-05 -2.13944878E-05
 -7.69694258E-05  2.01865191E-03  1.51803318E-04  1.41679411E-04  6.83953913E-05
 -4.99698644E-05  1.28937439E-03  3.89365805E-04 -3.03210858E-05  3.00451713E-05
  6.58945413E-05 -8.30423746E-05  1.00266502E-04  6.32722714E-03  1.87889527E-04
  6.91247385E-04  1.42368662E-05  1.36318784E-04  4.43499665E-05 -4.06735089E-05
  9.06684586E-04  2.72915065E-04  1.57960415E-04 -1.23531887E-04 -4.25942163E-05
 -2.30393389E-04 -1.16864803E-04  9.97343107E-01  1.81094547E-02 -8.42811702E-03
  4.03093979E-04 -6.49185776E-04 -1.34514035E-04  3.80854798E-04  6.71433362E-04
  2.69007768E-04  1.70917226E-04 -5.54355974E-05  3.61169950E-06 -2.54760659E-04
  1.15292239E-04 -4.34526741E-05  4.90006896E-04 -6.05680695E-04 -1.83479388E-04
  1.75676209E-04  2.42902510E-05  7.82476354E-04  1.79759703E-04  1.82822390E-04
  1.87240448E-04 -5.68673585E-06 -6.18972681E-05 -4.47761243E-05  1.87035464E-04
 -9.50605221E-05  3.48919443E-05  2.04319986E-05 -3.13484926E-05  2.01787328E-05
 -9.50574939E-05  3.48890937E-05  2.81304888E-05 -1.67795656E-05 -2.71125522E-05
  1.02045577E-04  1.24869794E-03  1.29378423E-05  1.72853634E-04 -2.32619854E-04
  1.02052397E-04  1.24874086E-03 -7.07062756E-05  1.44872991E-05  2.80981875E-04
  1.95926014E-05  1.34576236E-04 -4.49141051E-04  1.03519724E-05  1.54598303E-05
  6.45321460E-06  4.98626651E-04 -2.09019740E-04  1.67837966E-05 -6.68277736E-06
  3.54846290E-05  2.77544103E-05 -8.22675500E-06  1.05727242E-04 -2.44607911E-03
 -8.89692327E-05  3.80348210E-03 -7.60819356E-05  5.93869738E-05  5.91937883E-06
 -1.79802738E-03  8.78419626E-04 -2.20791791E-05  1.17003549E-04  8.77044874E-05
 -3.83258695E-05  1.01871778E-04  3.36386108E-04  9.97336521E-01  1.93020901E-02
 -1.26198236E-02  8.60269604E-05 -8.91139507E-05 -1.34707536E-05 -2.41737287E-03
  5.33505784E-04 -2.29200214E-04  1.63236807E-04  8.66870764E-07 -2.31909640E-04
  3.89678711E-04 -1.59509529E-05 -6.46063695E-03 -2.86595444E-04  3.78213013E-03
 -8.10118493E-05 -6.71719302E-05 -3.39036683E-05 -1.02794810E-03 -1.20155829E-03
 -5.37931826E-04  1.32850950E-04 -1.18825774E-04 -1.54013039E-04  6.40008858E-05
 -2.62341962E-04  2.28253314E-05  1.17359115E-04 -7.19800687E-04 -8.47601264E-06
  7.64601985E-05  2.21871610E-05  3.71421072E-04 -3.49074459E-04 -4.71378246E-05
  5.19416339E-06  3.02795078E-10 -2.96461236E-05  6.49497947E-05 -2.47536267E-05
  1.28591481E-04  1.05209729E-03 -2.69765626E-05  1.17182288E-04 -4.70178986E-04
  1.28564177E-04  1.05205401E-03 -1.72765219E-04 -1.58752577E-04  4.24827607E-04
 -2.42082741E-04  1.47461965E-04  1.92119686E-05  3.15079590E-05  5.74449452E-05
 -2.42075900E-04  1.47513208E-04  3.21620655E-05  5.60255486E-05 -2.20876425E-05
 -9.89392962E-02  2.03588197E-01  1.86957724E-01  7.58908169E-04  7.81844341E-02
  2.42305710E-02  4.89462414E-03  2.08953272E-02  7.23924059E-03 -3.07475431E-03
  2.08927878E-04  4.95749895E-03 -8.40851726E-03  1.48025056E-03 -1.11386898E-01
  2.24262373E-01  7.01435010E-02  6.32554200E-02 -1.84200105E-02  4.61623455E-03
 -2.56764798E-03  4.77685926E-03  1.05563429E-03 -1.61136575E-02  7.03620625E-03
  1.85402327E-02 -1.79891050E-02  1.39592569E-02 -3.02281432E-02  5.39457093E-02
  5.12404675E-02  4.05958367E-02 -1.10674774E-02  3.19952931E-03  2.28622799E-02
  4.50707151E-03  5.11272188E-03 -5.31962927E-03  3.81078993E-04  3.29523590E-03
 -2.04512784E-03 -3.12111693E-03 -4.87409019E-02  9.84781947E-02 -1.92674244E-03
  2.73220682E-02 -6.35112741E-02 -1.51330747E-02  1.05419482E-02  5.67757436E-03
  3.46727845E-03 -1.18481176E-02 -8.10373867E-04  5.89309543E-03 -3.50955928E-03
 -1.25032455E-02 -1.54565475E-01  3.18355142E-01  3.44033345E-01 -8.80542865E-02
 -1.36898311E-02 -1.85577538E-02 -4.65575915E-02 -1.42445154E-03 -8.01967626E-03
 -6.78877021E-03  3.25041374E-03  4.01795972E-03  1.79011333E-03  2.45411830E-03
  1.06832999E-02  8.43569527E-04  1.19913039E-04 -9.73996461E-04  2.59015971E-03
  1.06831826E-02  8.43651012E-04  9.53724899E-04  6.04446400E-04 -2.52924692E-03
  2.41734211E-02 -4.84904845E-04 -7.25936471E-04 -6.02390658E-03  1.86117227E-03
  2.41736525E-02 -4.84985951E-04  3.88218175E-04 -3.91432617E-03 -4.98046458E-03
 -1.69920164E-01  3.51453101E-01  3.34904190E-01 -1.59727566E-02  1.10264383E-01
  3.13984730E-02 -5.54430326E-03  2.21487253E-02  5.92705579E-03 -5.75737355E-03
 -1.03825742E-03  6.30234681E-03 -1.07487954E-02 -3.89389938E-03 -5.24500392E-02
  1.04898598E-01  6.46440911E-02 -2.68653187E-02 -2.26169058E-01 -7.41093950E-02
 -1.15246941E-02  3.96049943E-03 -6.55926301E-04 -5.76563964E-03 -8.41485244E-03
  9.54021092E-03 -2.89436879E-02 -1.81112006E-02  1.33403509E-02 -2.47612768E-02
 -3.94534524E-02 -2.40421553E-02 -1.12313820E-02 -7.37846081E-03 -1.69185726E-02
 -2.08796300E-03 -3.39967437E-03  1.96565835E-03 -2.62566148E-03 -1.11473240E-04
 -5.41288238E-03 -3.61265041E-03  4.20298938E-02 -8.08978600E-02 -2.31334765E-02
 -2.67629174E-02  5.02267146E-02  1.11282717E-02 -4.69304649E-03  1.10147295E-02
  2.63098779E-03  9.83417482E-03  1.35103100E-03 -5.49773819E-03  5.31708084E-03
  1.13490448E-02  1.09185108E-01 -2.27085096E-01 -2.50175314E-01  5.41182831E-02
 -2.25066228E-02  1.87210227E-03  2.89063759E-02 -1.63364310E-02 -3.30458867E-04
  3.82510817E-03 -6.67313907E-04 -3.53906879E-04 -3.85469792E-03  3.48460518E-03
 -2.74734578E-03 -8.95630240E-04 -4.24461345E-04  3.53033723E-04 -2.93947258E-04
 -2.74738073E-03 -8.95488098E-04 -5.21400447E-04  1.69487890E-04  3.01195214E-04
 -2.15523558E-02 -1.96173424E-03  1.35354051E-04  4.40096930E-03 -2.14561282E-03
 -2.15524582E-02 -1.96079053E-03 -8.88156989E-04  2.46293832E-03  4.13960824E-03
  1.03803896E-02 -2.40941430E-02 -2.95653813E-02 -3.38507830E-02 -1.31252331E-03
 -5.91778385E-03 -1.29257420E-02 -2.42770434E-04 -2.17995311E-03  1.43819012E-04
 -1.51919445E-03 -1.50324883E-03  1.23570325E-03 -5.07238282E-03 -3.11559587E-02
  7.05041954E-02  4.18189698E-02 -1.47694141E-01  6.84597419E-02 -2.94492707E-03
 -3.80224240E-02  1.26753436E-02 -2.28430119E-03 -7.09345814E-03 -7.50951946E-03